n -t * -s 11  -x 150 -y -30 -Z -30 -z 30  -v circle -c red
n -t * -s 12  -x 75 -y -60 -Z -60 -z 30  -v circle -c green
n -t * -s 0  -x 200 -y 0 -Z 0 -z 30  -v circle -c green
n -t * -s 1  -x 250 -y -70 -Z -70 -z 30  -v circle -c green
n -t * -s 2  -x 300 -y -30 -Z -30 -z 30  -v circle -c green
n -t * -s 3  -x 250 -y -100 -Z -100 -z 30  -v circle -c green
n -t * -s 4  -x 300 -y -80 -Z -80 -z 30  -v circle -c green
n -t * -s 5  -x 300 -y -120 -Z -120 -z 30  -v circle -c green
n -t * -s 6  -x 120 -y -60 -Z -60 -z 30  -v circle -c green
n -t * -s 7  -x 75 -y -100 -Z -100 -z 30  -v circle -c green
n -t * -s 8  -x 150 -y -100 -Z -100 -z 30  -v circle -c green
n -t * -s 9  -x 225 -y -30 -Z -30 -z 30  -v circle -c red
n -t * -s 10  -x 100 -y -130 -Z -130 -z 30  -v circle -c green
V -t * -v 1.0a5 -a 0
W -t * -x 1500 -y 1500
A -t * -n 1 -p 0 -o 0xffffffff -c 31 -a 1
A -t * -h 1 -m 2147483647 -s 0
+ -t 0.001025000 -s 5 -d -1 -p vectorbasedforward -e 100 -c 2 -a 0 -i 0 -k MAC 
- -t 0.001025000 -s 5 -d -1 -p vectorbasedforward -e 100 -c 2 -a 0 -i 0 -k MAC
h -t 0.001025000 -s 5 -d -1 -p vectorbasedforward -e 100 -c 2 -a 0 -i 0 -k MAC -R 100.000000
v -t 0.001025000 -e sim_annotation 0.001025000 1 node 5 sendout packet (vectorbasedforward) 0
+ -t 0.001025000 -s 10 -d -1 -p vectorbasedforward -e 100 -c 2 -a 0 -i 1 -k MAC 
- -t 0.001025000 -s 10 -d -1 -p vectorbasedforward -e 100 -c 2 -a 0 -i 1 -k MAC
h -t 0.001025000 -s 10 -d -1 -p vectorbasedforward -e 100 -c 2 -a 0 -i 1 -k MAC -R 100.000000
v -t 0.001025000 -e sim_annotation 0.001025000 2 node 10 sendout packet (vectorbasedforward) 1
r -t 0.113854526 -s 7 -d -1 -p vectorbasedforward -e 100 -c 2 -a 0 -i 1 -k MAC -R 100.000000
v -t 0.113854526 -e sim_annotation 0.113854526 3 node 7 receive packet(vectorbasedforward) 1
r -t 0.118737362 -s 4 -d -1 -p vectorbasedforward -e 100 -c 2 -a 0 -i 0 -k MAC -R 100.000000
v -t 0.118737362 -e sim_annotation 0.118737362 4 node 4 receive packet(vectorbasedforward) 0
r -t 0.119322084 -s 3 -d -1 -p vectorbasedforward -e 100 -c 2 -a 0 -i 0 -k MAC -R 100.000000
v -t 0.119322084 -e sim_annotation 0.119322084 5 node 3 receive packet(vectorbasedforward) 0
r -t 0.124741257 -s 8 -d -1 -p vectorbasedforward -e 100 -c 2 -a 0 -i 1 -k MAC -R 100.000000
v -t 0.124741257 -e sim_annotation 0.124741257 6 node 8 receive packet(vectorbasedforward) 1
r -t 0.138760027 -s 1 -d -1 -p vectorbasedforward -e 100 -c 2 -a 0 -i 0 -k MAC -R 100.000000
v -t 0.138760027 -e sim_annotation 0.138760027 7 node 1 receive packet(vectorbasedforward) 0
+ -t 0.838266459 -s 1 -d -1 -p vectorbasedforward -e 100 -c 2 -a 0 -i 0 -k MAC 
- -t 0.838266459 -s 1 -d -1 -p vectorbasedforward -e 100 -c 2 -a 0 -i 0 -k MAC
h -t 0.838266459 -s 1 -d -1 -p vectorbasedforward -e 100 -c 2 -a 0 -i 0 -k MAC -R 100.000000
v -t 0.838266459 -e sim_annotation 0.838266459 8 node 1 sendout packet (vectorbasedforward) 0
+ -t 0.847874371 -s 3 -d -1 -p vectorbasedforward -e 100 -c 2 -a 0 -i 0 -k MAC 
- -t 0.847874371 -s 3 -d -1 -p vectorbasedforward -e 100 -c 2 -a 0 -i 0 -k MAC
h -t 0.847874371 -s 3 -d -1 -p vectorbasedforward -e 100 -c 2 -a 0 -i 0 -k MAC -R 100.000000
v -t 0.847874371 -e sim_annotation 0.847874371 9 node 3 sendout packet (vectorbasedforward) 0
+ -t 0.909359465 -s 7 -d -1 -p vectorbasedforward -e 100 -c 2 -a 0 -i 1 -k MAC 
- -t 0.909359465 -s 7 -d -1 -p vectorbasedforward -e 100 -c 2 -a 0 -i 1 -k MAC
h -t 0.909359465 -s 7 -d -1 -p vectorbasedforward -e 100 -c 2 -a 0 -i 1 -k MAC -R 100.000000
v -t 0.909359465 -e sim_annotation 0.909359465 10 node 7 sendout packet (vectorbasedforward) 1
r -t 0.946550730 -s 3 -d -1 -p vectorbasedforward -e 100 -c 2 -a 0 -i 0 -k MAC -R 100.000000
v -t 0.946550730 -e sim_annotation 0.946550730 11 node 3 receive packet(vectorbasedforward) 0
d -t 0.952907475 -s 4 -d -1 -p vectorbasedforward -e 100 -c 2 -a 0 -i 0 -k MAC
v -t 0.952907475 -e sim_annotation 0.952907475 12 node 4 drop packet(vectorbasedforward) 0
r -t 0.956158642 -s 1 -d -1 -p vectorbasedforward -e 100 -c 2 -a 0 -i 0 -k MAC -R 100.000000
v -t 0.956158642 -e sim_annotation 0.956158642 13 node 1 receive packet(vectorbasedforward) 0
r -t 0.959497515 -s 9 -d -1 -p vectorbasedforward -e 100 -c 2 -a 0 -i 0 -k MAC -R 100.000000
v -t 0.959497515 -e sim_annotation 0.959497515 14 node 9 receive packet(vectorbasedforward) 0
d -t 0.959522515 -s 9 -d -1 -p vectorbasedforward -e 100 -c 2 -a 0 -i 0 -k RTR
v -t 0.959522515 -e sim_annotation 0.959522515 15 node 9 drop packet(vectorbasedforward) 0
d -t 0.966171455 -s 4 -d -1 -p vectorbasedforward -e 100 -c 2 -a 0 -i 0 -k MAC
v -t 0.966171455 -e sim_annotation 0.966171455 16 node 4 drop packet(vectorbasedforward) 0
d -t 0.966171455 -s 5 -d -1 -p vectorbasedforward -e 100 -c 2 -a 0 -i 0 -k MAC
v -t 0.966171455 -e sim_annotation 0.966171455 17 node 5 drop packet(vectorbasedforward) 0
r -t 0.968598688 -s 2 -d -1 -p vectorbasedforward -e 100 -c 2 -a 0 -i 0 -k MAC -R 100.000000
v -t 0.968598688 -e sim_annotation 0.968598688 18 node 2 receive packet(vectorbasedforward) 0
d -t 0.976001486 -s 5 -d -1 -p vectorbasedforward -e 100 -c 2 -a 0 -i 0 -k MAC
v -t 0.976001486 -e sim_annotation 0.976001486 19 node 5 drop packet(vectorbasedforward) 0
d -t 0.994541037 -s 8 -d -1 -p vectorbasedforward -e 100 -c 2 -a 0 -i 0 -k MAC
v -t 0.994541037 -e sim_annotation 0.994541037 20 node 8 drop packet(vectorbasedforward) 0
+ -t 1.001025000 -s 5 -d -1 -p vectorbasedforward -e 100 -c 2 -a 0 -i 2 -k MAC 
- -t 1.001025000 -s 5 -d -1 -p vectorbasedforward -e 100 -c 2 -a 0 -i 2 -k MAC
h -t 1.001025000 -s 5 -d -1 -p vectorbasedforward -e 100 -c 2 -a 0 -i 2 -k MAC -R 100.000000
v -t 1.001025000 -e sim_annotation 1.001025000 21 node 5 sendout packet (vectorbasedforward) 2
r -t 1.022188991 -s 10 -d -1 -p vectorbasedforward -e 100 -c 2 -a 0 -i 1 -k MAC -R 100.000000
v -t 1.022188991 -e sim_annotation 1.022188991 22 node 10 receive packet(vectorbasedforward) 1
r -t 1.027071827 -s 12 -d -1 -p vectorbasedforward -e 100 -c 2 -a 0 -i 1 -k MAC -R 100.000000
v -t 1.027071827 -e sim_annotation 1.027071827 23 node 12 receive packet(vectorbasedforward) 1
r -t 1.037548906 -s 6 -d -1 -p vectorbasedforward -e 100 -c 2 -a 0 -i 1 -k MAC -R 100.000000
v -t 1.037548906 -e sim_annotation 1.037548906 24 node 6 receive packet(vectorbasedforward) 1
d -t 1.039359465 -s 8 -d -1 -p vectorbasedforward -e 100 -c 2 -a 0 -i 1 -k MAC
v -t 1.039359465 -e sim_annotation 1.039359465 25 node 8 drop packet(vectorbasedforward) 1
+ -t 1.068223788 -s 10 -d -1 -p vectorbasedforward -e 100 -c 2 -a 0 -i 3 -k MAC 
- -t 1.068223788 -s 10 -d -1 -p vectorbasedforward -e 100 -c 2 -a 0 -i 3 -k MAC
h -t 1.068223788 -s 10 -d -1 -p vectorbasedforward -e 100 -c 2 -a 0 -i 3 -k MAC -R 100.000000
v -t 1.068223788 -e sim_annotation 1.068223788 26 node 10 sendout packet (vectorbasedforward) 3
r -t 1.118737362 -s 4 -d -1 -p vectorbasedforward -e 100 -c 2 -a 0 -i 2 -k MAC -R 100.000000
v -t 1.118737362 -e sim_annotation 1.118737362 27 node 4 receive packet(vectorbasedforward) 2
r -t 1.119322084 -s 3 -d -1 -p vectorbasedforward -e 100 -c 2 -a 0 -i 2 -k MAC -R 100.000000
v -t 1.119322084 -e sim_annotation 1.119322084 28 node 3 receive packet(vectorbasedforward) 2
r -t 1.138760027 -s 1 -d -1 -p vectorbasedforward -e 100 -c 2 -a 0 -i 2 -k MAC -R 100.000000
v -t 1.138760027 -e sim_annotation 1.138760027 29 node 1 receive packet(vectorbasedforward) 2
r -t 1.181053314 -s 7 -d -1 -p vectorbasedforward -e 100 -c 2 -a 0 -i 3 -k MAC -R 100.000000
v -t 1.181053314 -e sim_annotation 1.181053314 30 node 7 receive packet(vectorbasedforward) 3
+ -t 1.185909366 -s 4 -d -1 -p vectorbasedforward -e 100 -c 2 -a 0 -i 0 -k MAC 
- -t 1.185909366 -s 4 -d -1 -p vectorbasedforward -e 100 -c 2 -a 0 -i 0 -k MAC
h -t 1.185909366 -s 4 -d -1 -p vectorbasedforward -e 100 -c 2 -a 0 -i 0 -k MAC -R 100.000000
v -t 1.185909366 -e sim_annotation 1.185909366 31 node 4 sendout packet (vectorbasedforward) 0
r -t 1.191940045 -s 8 -d -1 -p vectorbasedforward -e 100 -c 2 -a 0 -i 3 -k MAC -R 100.000000
v -t 1.191940045 -e sim_annotation 1.191940045 32 node 8 receive packet(vectorbasedforward) 3
+ -t 1.297130537 -s 8 -d -1 -p vectorbasedforward -e 100 -c 2 -a 0 -i 1 -k MAC 
- -t 1.297130537 -s 8 -d -1 -p vectorbasedforward -e 100 -c 2 -a 0 -i 1 -k MAC
h -t 1.297130537 -s 8 -d -1 -p vectorbasedforward -e 100 -c 2 -a 0 -i 1 -k MAC -R 100.000000
v -t 1.297130537 -e sim_annotation 1.297130537 33 node 8 sendout packet (vectorbasedforward) 1
r -t 1.300550382 -s 1 -d -1 -p vectorbasedforward -e 100 -c 2 -a 0 -i 0 -k MAC -R 100.000000
v -t 1.300550382 -e sim_annotation 1.300550382 34 node 1 receive packet(vectorbasedforward) 0
r -t 1.303621727 -s 5 -d -1 -p vectorbasedforward -e 100 -c 2 -a 0 -i 0 -k MAC -R 100.000000
v -t 1.303621727 -e sim_annotation 1.303621727 35 node 5 receive packet(vectorbasedforward) 0
r -t 1.304206450 -s 3 -d -1 -p vectorbasedforward -e 100 -c 2 -a 0 -i 0 -k MAC -R 100.000000
v -t 1.304206450 -e sim_annotation 1.304206450 36 node 3 receive packet(vectorbasedforward) 0
r -t 1.313049818 -s 2 -d -1 -p vectorbasedforward -e 100 -c 2 -a 0 -i 0 -k MAC -R 100.000000
v -t 1.313049818 -e sim_annotation 1.313049818 37 node 2 receive packet(vectorbasedforward) 0
r -t 1.419818032 -s 6 -d -1 -p vectorbasedforward -e 100 -c 2 -a 0 -i 1 -k MAC -R 100.000000
v -t 1.419818032 -e sim_annotation 1.419818032 38 node 6 receive packet(vectorbasedforward) 1
r -t 1.420846794 -s 10 -d -1 -p vectorbasedforward -e 100 -c 2 -a 0 -i 1 -k MAC -R 100.000000
v -t 1.420846794 -e sim_annotation 1.420846794 39 node 10 receive packet(vectorbasedforward) 1
r -t 1.427130537 -s 7 -d -1 -p vectorbasedforward -e 100 -c 2 -a 0 -i 1 -k MAC -R 100.000000
v -t 1.427130537 -e sim_annotation 1.427130537 40 node 7 receive packet(vectorbasedforward) 1
r -t 1.439758185 -s 12 -d -1 -p vectorbasedforward -e 100 -c 2 -a 0 -i 1 -k MAC -R 100.000000
v -t 1.439758185 -e sim_annotation 1.439758185 41 node 12 receive packet(vectorbasedforward) 1
r -t 1.443127170 -s 11 -d -1 -p vectorbasedforward -e 100 -c 2 -a 0 -i 1 -k MAC -R 100.000000
v -t 1.443127170 -e sim_annotation 1.443127170 42 node 11 receive packet(vectorbasedforward) 1
d -t 1.443152170 -s 11 -d -1 -p vectorbasedforward -e 100 -c 2 -a 0 -i 1 -k RTR
v -t 1.443152170 -e sim_annotation 1.443152170 43 node 11 drop packet(vectorbasedforward) 1
r -t 1.443797204 -s 3 -d -1 -p vectorbasedforward -e 100 -c 2 -a 0 -i 1 -k MAC -R 100.000000
v -t 1.443797204 -e sim_annotation 1.443797204 44 node 3 receive packet(vectorbasedforward) 1
+ -t 1.838266459 -s 1 -d -1 -p vectorbasedforward -e 100 -c 2 -a 0 -i 2 -k MAC 
- -t 1.838266459 -s 1 -d -1 -p vectorbasedforward -e 100 -c 2 -a 0 -i 2 -k MAC
h -t 1.838266459 -s 1 -d -1 -p vectorbasedforward -e 100 -c 2 -a 0 -i 2 -k MAC -R 100.000000
v -t 1.838266459 -e sim_annotation 1.838266459 45 node 1 sendout packet (vectorbasedforward) 2
+ -t 1.847874371 -s 3 -d -1 -p vectorbasedforward -e 100 -c 2 -a 0 -i 2 -k MAC 
- -t 1.847874371 -s 3 -d -1 -p vectorbasedforward -e 100 -c 2 -a 0 -i 2 -k MAC
h -t 1.847874371 -s 3 -d -1 -p vectorbasedforward -e 100 -c 2 -a 0 -i 2 -k MAC -R 100.000000
v -t 1.847874371 -e sim_annotation 1.847874371 46 node 3 sendout packet (vectorbasedforward) 2
+ -t 1.931109037 -s 12 -d -1 -p vectorbasedforward -e 100 -c 2 -a 0 -i 1 -k MAC 
- -t 1.931109037 -s 12 -d -1 -p vectorbasedforward -e 100 -c 2 -a 0 -i 1 -k MAC
h -t 1.931109037 -s 12 -d -1 -p vectorbasedforward -e 100 -c 2 -a 0 -i 1 -k MAC -R 100.000000
v -t 1.931109037 -e sim_annotation 1.931109037 47 node 12 sendout packet (vectorbasedforward) 1
r -t 1.946550730 -s 3 -d -1 -p vectorbasedforward -e 100 -c 2 -a 0 -i 2 -k MAC -R 100.000000
v -t 1.946550730 -e sim_annotation 1.946550730 48 node 3 receive packet(vectorbasedforward) 2
d -t 1.952907475 -s 4 -d -1 -p vectorbasedforward -e 100 -c 2 -a 0 -i 2 -k MAC
v -t 1.952907475 -e sim_annotation 1.952907475 49 node 4 drop packet(vectorbasedforward) 2
r -t 1.956158642 -s 1 -d -1 -p vectorbasedforward -e 100 -c 2 -a 0 -i 2 -k MAC -R 100.000000
v -t 1.956158642 -e sim_annotation 1.956158642 50 node 1 receive packet(vectorbasedforward) 2
r -t 1.959497515 -s 9 -d -1 -p vectorbasedforward -e 100 -c 2 -a 0 -i 2 -k MAC -R 100.000000
v -t 1.959497515 -e sim_annotation 1.959497515 51 node 9 receive packet(vectorbasedforward) 2
d -t 1.959522515 -s 9 -d -1 -p vectorbasedforward -e 100 -c 2 -a 0 -i 2 -k RTR
v -t 1.959522515 -e sim_annotation 1.959522515 52 node 9 drop packet(vectorbasedforward) 2
d -t 1.966171455 -s 4 -d -1 -p vectorbasedforward -e 100 -c 2 -a 0 -i 2 -k MAC
v -t 1.966171455 -e sim_annotation 1.966171455 53 node 4 drop packet(vectorbasedforward) 2
d -t 1.966171455 -s 5 -d -1 -p vectorbasedforward -e 100 -c 2 -a 0 -i 2 -k MAC
v -t 1.966171455 -e sim_annotation 1.966171455 54 node 5 drop packet(vectorbasedforward) 2
r -t 1.968598688 -s 2 -d -1 -p vectorbasedforward -e 100 -c 2 -a 0 -i 2 -k MAC -R 100.000000
v -t 1.968598688 -e sim_annotation 1.968598688 55 node 2 receive packet(vectorbasedforward) 2
d -t 1.976001486 -s 5 -d -1 -p vectorbasedforward -e 100 -c 2 -a 0 -i 2 -k MAC
v -t 1.976001486 -e sim_annotation 1.976001486 56 node 5 drop packet(vectorbasedforward) 2
d -t 1.994541037 -s 8 -d -1 -p vectorbasedforward -e 100 -c 2 -a 0 -i 2 -k MAC
v -t 1.994541037 -e sim_annotation 1.994541037 57 node 8 drop packet(vectorbasedforward) 2
+ -t 2.001025000 -s 5 -d -1 -p vectorbasedforward -e 100 -c 2 -a 0 -i 4 -k MAC 
- -t 2.001025000 -s 5 -d -1 -p vectorbasedforward -e 100 -c 2 -a 0 -i 4 -k MAC
h -t 2.001025000 -s 5 -d -1 -p vectorbasedforward -e 100 -c 2 -a 0 -i 4 -k MAC -R 100.000000
v -t 2.001025000 -e sim_annotation 2.001025000 58 node 5 sendout packet (vectorbasedforward) 4
+ -t 2.001025000 -s 10 -d -1 -p vectorbasedforward -e 100 -c 2 -a 0 -i 5 -k MAC 
- -t 2.001025000 -s 10 -d -1 -p vectorbasedforward -e 100 -c 2 -a 0 -i 5 -k MAC
h -t 2.001025000 -s 10 -d -1 -p vectorbasedforward -e 100 -c 2 -a 0 -i 5 -k MAC -R 100.000000
v -t 2.001025000 -e sim_annotation 2.001025000 59 node 10 sendout packet (vectorbasedforward) 5
r -t 2.041109037 -s 6 -d -1 -p vectorbasedforward -e 100 -c 2 -a 0 -i 1 -k MAC -R 100.000000
v -t 2.041109037 -e sim_annotation 2.041109037 60 node 6 receive packet(vectorbasedforward) 1
d -t 2.048821399 -s 7 -d -1 -p vectorbasedforward -e 100 -c 2 -a 0 -i 1 -k MAC
v -t 2.048821399 -e sim_annotation 2.048821399 61 node 7 drop packet(vectorbasedforward) 1
r -t 2.068554664 -s 11 -d -1 -p vectorbasedforward -e 100 -c 2 -a 0 -i 1 -k MAC -R 100.000000
v -t 2.068554664 -e sim_annotation 2.068554664 62 node 11 receive packet(vectorbasedforward) 1
d -t 2.068579664 -s 11 -d -1 -p vectorbasedforward -e 100 -c 2 -a 0 -i 1 -k RTR
v -t 2.068579664 -e sim_annotation 2.068579664 63 node 11 drop packet(vectorbasedforward) 1
d -t 2.073736685 -s 8 -d -1 -p vectorbasedforward -e 100 -c 2 -a 0 -i 1 -k MAC
v -t 2.073736685 -e sim_annotation 2.073736685 64 node 8 drop packet(vectorbasedforward) 1
d -t 2.113854526 -s 7 -d -1 -p vectorbasedforward -e 100 -c 2 -a 0 -i 5 -k MAC
v -t 2.113854526 -e sim_annotation 2.113854526 65 node 7 drop packet(vectorbasedforward) 5
r -t 2.118737362 -s 4 -d -1 -p vectorbasedforward -e 100 -c 2 -a 0 -i 4 -k MAC -R 100.000000
v -t 2.118737362 -e sim_annotation 2.118737362 66 node 4 receive packet(vectorbasedforward) 4
r -t 2.119322084 -s 3 -d -1 -p vectorbasedforward -e 100 -c 2 -a 0 -i 4 -k MAC -R 100.000000
v -t 2.119322084 -e sim_annotation 2.119322084 67 node 3 receive packet(vectorbasedforward) 4
d -t 2.124741257 -s 8 -d -1 -p vectorbasedforward -e 100 -c 2 -a 0 -i 5 -k MAC
v -t 2.124741257 -e sim_annotation 2.124741257 68 node 8 drop packet(vectorbasedforward) 5
r -t 2.138760027 -s 1 -d -1 -p vectorbasedforward -e 100 -c 2 -a 0 -i 4 -k MAC -R 100.000000
v -t 2.138760027 -e sim_annotation 2.138760027 69 node 1 receive packet(vectorbasedforward) 4
+ -t 2.185909366 -s 4 -d -1 -p vectorbasedforward -e 100 -c 2 -a 0 -i 2 -k MAC 
- -t 2.185909366 -s 4 -d -1 -p vectorbasedforward -e 100 -c 2 -a 0 -i 2 -k MAC
h -t 2.185909366 -s 4 -d -1 -p vectorbasedforward -e 100 -c 2 -a 0 -i 2 -k MAC -R 100.000000
v -t 2.185909366 -e sim_annotation 2.185909366 70 node 4 sendout packet (vectorbasedforward) 2
d -t 2.200212600 -s 7 -d -1 -p vectorbasedforward -e 100 -c 2 -a 0 -i 3 -k MAC
v -t 2.200212600 -e sim_annotation 2.200212600 71 node 7 drop packet(vectorbasedforward) 3
r -t 2.300550382 -s 1 -d -1 -p vectorbasedforward -e 100 -c 2 -a 0 -i 2 -k MAC -R 100.000000
v -t 2.300550382 -e sim_annotation 2.300550382 72 node 1 receive packet(vectorbasedforward) 2
r -t 2.303621727 -s 5 -d -1 -p vectorbasedforward -e 100 -c 2 -a 0 -i 2 -k MAC -R 100.000000
v -t 2.303621727 -e sim_annotation 2.303621727 73 node 5 receive packet(vectorbasedforward) 2
r -t 2.304206450 -s 3 -d -1 -p vectorbasedforward -e 100 -c 2 -a 0 -i 2 -k MAC -R 100.000000
v -t 2.304206450 -e sim_annotation 2.304206450 74 node 3 receive packet(vectorbasedforward) 2
r -t 2.313049818 -s 2 -d -1 -p vectorbasedforward -e 100 -c 2 -a 0 -i 2 -k MAC -R 100.000000
v -t 2.313049818 -e sim_annotation 2.313049818 75 node 2 receive packet(vectorbasedforward) 2
+ -t 2.364329325 -s 8 -d -1 -p vectorbasedforward -e 100 -c 2 -a 0 -i 3 -k MAC 
- -t 2.364329325 -s 8 -d -1 -p vectorbasedforward -e 100 -c 2 -a 0 -i 3 -k MAC
h -t 2.364329325 -s 8 -d -1 -p vectorbasedforward -e 100 -c 2 -a 0 -i 3 -k MAC -R 100.000000
v -t 2.364329325 -e sim_annotation 2.364329325 76 node 8 sendout packet (vectorbasedforward) 3
r -t 2.487016820 -s 6 -d -1 -p vectorbasedforward -e 100 -c 2 -a 0 -i 3 -k MAC -R 100.000000
v -t 2.487016820 -e sim_annotation 2.487016820 77 node 6 receive packet(vectorbasedforward) 3
r -t 2.488045582 -s 10 -d -1 -p vectorbasedforward -e 100 -c 2 -a 0 -i 3 -k MAC -R 100.000000
v -t 2.488045582 -e sim_annotation 2.488045582 78 node 10 receive packet(vectorbasedforward) 3
r -t 2.494329325 -s 7 -d -1 -p vectorbasedforward -e 100 -c 2 -a 0 -i 3 -k MAC -R 100.000000
v -t 2.494329325 -e sim_annotation 2.494329325 79 node 7 receive packet(vectorbasedforward) 3
r -t 2.506956973 -s 12 -d -1 -p vectorbasedforward -e 100 -c 2 -a 0 -i 3 -k MAC -R 100.000000
v -t 2.506956973 -e sim_annotation 2.506956973 80 node 12 receive packet(vectorbasedforward) 3
r -t 2.510325958 -s 11 -d -1 -p vectorbasedforward -e 100 -c 2 -a 0 -i 3 -k MAC -R 100.000000
v -t 2.510325958 -e sim_annotation 2.510325958 81 node 11 receive packet(vectorbasedforward) 3
d -t 2.510350958 -s 11 -d -1 -p vectorbasedforward -e 100 -c 2 -a 0 -i 3 -k RTR
v -t 2.510350958 -e sim_annotation 2.510350958 82 node 11 drop packet(vectorbasedforward) 3
r -t 2.510995992 -s 3 -d -1 -p vectorbasedforward -e 100 -c 2 -a 0 -i 3 -k MAC -R 100.000000
v -t 2.510995992 -e sim_annotation 2.510995992 83 node 3 receive packet(vectorbasedforward) 3
+ -t 2.764596548 -s 12 -d -1 -p vectorbasedforward -e 100 -c 2 -a 0 -i 3 -k MAC 
- -t 2.764596548 -s 12 -d -1 -p vectorbasedforward -e 100 -c 2 -a 0 -i 3 -k MAC
h -t 2.764596548 -s 12 -d -1 -p vectorbasedforward -e 100 -c 2 -a 0 -i 3 -k MAC -R 100.000000
v -t 2.764596548 -e sim_annotation 2.764596548 84 node 12 sendout packet (vectorbasedforward) 3
+ -t 2.838266459 -s 1 -d -1 -p vectorbasedforward -e 100 -c 2 -a 0 -i 4 -k MAC 
- -t 2.838266459 -s 1 -d -1 -p vectorbasedforward -e 100 -c 2 -a 0 -i 4 -k MAC
h -t 2.838266459 -s 1 -d -1 -p vectorbasedforward -e 100 -c 2 -a 0 -i 4 -k MAC -R 100.000000
v -t 2.838266459 -e sim_annotation 2.838266459 85 node 1 sendout packet (vectorbasedforward) 4
+ -t 2.847874371 -s 3 -d -1 -p vectorbasedforward -e 100 -c 2 -a 0 -i 4 -k MAC 
- -t 2.847874371 -s 3 -d -1 -p vectorbasedforward -e 100 -c 2 -a 0 -i 4 -k MAC
h -t 2.847874371 -s 3 -d -1 -p vectorbasedforward -e 100 -c 2 -a 0 -i 4 -k MAC -R 100.000000
v -t 2.847874371 -e sim_annotation 2.847874371 86 node 3 sendout packet (vectorbasedforward) 4
r -t 2.874596548 -s 6 -d -1 -p vectorbasedforward -e 100 -c 2 -a 0 -i 3 -k MAC -R 100.000000
v -t 2.874596548 -e sim_annotation 2.874596548 87 node 6 receive packet(vectorbasedforward) 3
r -t 2.882308910 -s 7 -d -1 -p vectorbasedforward -e 100 -c 2 -a 0 -i 3 -k MAC -R 100.000000
v -t 2.882308910 -e sim_annotation 2.882308910 88 node 7 receive packet(vectorbasedforward) 3
r -t 2.902042175 -s 11 -d -1 -p vectorbasedforward -e 100 -c 2 -a 0 -i 3 -k MAC -R 100.000000
v -t 2.902042175 -e sim_annotation 2.902042175 89 node 11 receive packet(vectorbasedforward) 3
d -t 2.902067175 -s 11 -d -1 -p vectorbasedforward -e 100 -c 2 -a 0 -i 3 -k RTR
v -t 2.902067175 -e sim_annotation 2.902067175 90 node 11 drop packet(vectorbasedforward) 3
r -t 2.907224196 -s 8 -d -1 -p vectorbasedforward -e 100 -c 2 -a 0 -i 3 -k MAC -R 100.000000
v -t 2.907224196 -e sim_annotation 2.907224196 91 node 8 receive packet(vectorbasedforward) 3
r -t 2.946550730 -s 3 -d -1 -p vectorbasedforward -e 100 -c 2 -a 0 -i 4 -k MAC -R 100.000000
v -t 2.946550730 -e sim_annotation 2.946550730 92 node 3 receive packet(vectorbasedforward) 4
d -t 2.952907475 -s 4 -d -1 -p vectorbasedforward -e 100 -c 2 -a 0 -i 4 -k MAC
v -t 2.952907475 -e sim_annotation 2.952907475 93 node 4 drop packet(vectorbasedforward) 4
r -t 2.956158642 -s 1 -d -1 -p vectorbasedforward -e 100 -c 2 -a 0 -i 4 -k MAC -R 100.000000
v -t 2.956158642 -e sim_annotation 2.956158642 94 node 1 receive packet(vectorbasedforward) 4
r -t 2.959497515 -s 9 -d -1 -p vectorbasedforward -e 100 -c 2 -a 0 -i 4 -k MAC -R 100.000000
v -t 2.959497515 -e sim_annotation 2.959497515 95 node 9 receive packet(vectorbasedforward) 4
d -t 2.959522515 -s 9 -d -1 -p vectorbasedforward -e 100 -c 2 -a 0 -i 4 -k RTR
v -t 2.959522515 -e sim_annotation 2.959522515 96 node 9 drop packet(vectorbasedforward) 4
d -t 2.966171455 -s 4 -d -1 -p vectorbasedforward -e 100 -c 2 -a 0 -i 4 -k MAC
v -t 2.966171455 -e sim_annotation 2.966171455 97 node 4 drop packet(vectorbasedforward) 4
d -t 2.966171455 -s 5 -d -1 -p vectorbasedforward -e 100 -c 2 -a 0 -i 4 -k MAC
v -t 2.966171455 -e sim_annotation 2.966171455 98 node 5 drop packet(vectorbasedforward) 4
r -t 2.968598688 -s 2 -d -1 -p vectorbasedforward -e 100 -c 2 -a 0 -i 4 -k MAC -R 100.000000
v -t 2.968598688 -e sim_annotation 2.968598688 99 node 2 receive packet(vectorbasedforward) 4
d -t 2.976001486 -s 5 -d -1 -p vectorbasedforward -e 100 -c 2 -a 0 -i 4 -k MAC
v -t 2.976001486 -e sim_annotation 2.976001486 100 node 5 drop packet(vectorbasedforward) 4
r -t 2.994541037 -s 8 -d -1 -p vectorbasedforward -e 100 -c 2 -a 0 -i 4 -k MAC -R 100.000000
v -t 2.994541037 -e sim_annotation 2.994541037 101 node 8 receive packet(vectorbasedforward) 4
+ -t 3.001025000 -s 5 -d -1 -p vectorbasedforward -e 100 -c 2 -a 0 -i 6 -k MAC 
- -t 3.001025000 -s 5 -d -1 -p vectorbasedforward -e 100 -c 2 -a 0 -i 6 -k MAC
h -t 3.001025000 -s 5 -d -1 -p vectorbasedforward -e 100 -c 2 -a 0 -i 6 -k MAC -R 100.000000
v -t 3.001025000 -e sim_annotation 3.001025000 102 node 5 sendout packet (vectorbasedforward) 6
+ -t 3.001025000 -s 10 -d -1 -p vectorbasedforward -e 100 -c 2 -a 0 -i 7 -k MAC 
- -t 3.001025000 -s 10 -d -1 -p vectorbasedforward -e 100 -c 2 -a 0 -i 7 -k MAC
h -t 3.001025000 -s 10 -d -1 -p vectorbasedforward -e 100 -c 2 -a 0 -i 7 -k MAC -R 100.000000
v -t 3.001025000 -e sim_annotation 3.001025000 103 node 10 sendout packet (vectorbasedforward) 7
r -t 3.113854526 -s 7 -d -1 -p vectorbasedforward -e 100 -c 2 -a 0 -i 7 -k MAC -R 100.000000
v -t 3.113854526 -e sim_annotation 3.113854526 104 node 7 receive packet(vectorbasedforward) 7
r -t 3.118737362 -s 4 -d -1 -p vectorbasedforward -e 100 -c 2 -a 0 -i 6 -k MAC -R 100.000000
v -t 3.118737362 -e sim_annotation 3.118737362 105 node 4 receive packet(vectorbasedforward) 6
r -t 3.119322084 -s 3 -d -1 -p vectorbasedforward -e 100 -c 2 -a 0 -i 6 -k MAC -R 100.000000
v -t 3.119322084 -e sim_annotation 3.119322084 106 node 3 receive packet(vectorbasedforward) 6
r -t 3.124741257 -s 8 -d -1 -p vectorbasedforward -e 100 -c 2 -a 0 -i 7 -k MAC -R 100.000000
v -t 3.124741257 -e sim_annotation 3.124741257 107 node 8 receive packet(vectorbasedforward) 7
r -t 3.138760027 -s 1 -d -1 -p vectorbasedforward -e 100 -c 2 -a 0 -i 6 -k MAC -R 100.000000
v -t 3.138760027 -e sim_annotation 3.138760027 108 node 1 receive packet(vectorbasedforward) 6
+ -t 3.185909366 -s 4 -d -1 -p vectorbasedforward -e 100 -c 2 -a 0 -i 4 -k MAC 
- -t 3.185909366 -s 4 -d -1 -p vectorbasedforward -e 100 -c 2 -a 0 -i 4 -k MAC
h -t 3.185909366 -s 4 -d -1 -p vectorbasedforward -e 100 -c 2 -a 0 -i 4 -k MAC -R 100.000000
v -t 3.185909366 -e sim_annotation 3.185909366 109 node 4 sendout packet (vectorbasedforward) 4
+ -t 3.281571001 -s 6 -d -1 -p vectorbasedforward -e 100 -c 2 -a 0 -i 3 -k MAC 
- -t 3.281571001 -s 6 -d -1 -p vectorbasedforward -e 100 -c 2 -a 0 -i 3 -k MAC
h -t 3.281571001 -s 6 -d -1 -p vectorbasedforward -e 100 -c 2 -a 0 -i 3 -k MAC -R 100.000000
v -t 3.281571001 -e sim_annotation 3.281571001 110 node 6 sendout packet (vectorbasedforward) 3
r -t 3.300550382 -s 1 -d -1 -p vectorbasedforward -e 100 -c 2 -a 0 -i 4 -k MAC -R 100.000000
v -t 3.300550382 -e sim_annotation 3.300550382 111 node 1 receive packet(vectorbasedforward) 4
r -t 3.303621727 -s 5 -d -1 -p vectorbasedforward -e 100 -c 2 -a 0 -i 4 -k MAC -R 100.000000
v -t 3.303621727 -e sim_annotation 3.303621727 112 node 5 receive packet(vectorbasedforward) 4
r -t 3.304206450 -s 3 -d -1 -p vectorbasedforward -e 100 -c 2 -a 0 -i 4 -k MAC -R 100.000000
v -t 3.304206450 -e sim_annotation 3.304206450 113 node 3 receive packet(vectorbasedforward) 4
r -t 3.313049818 -s 2 -d -1 -p vectorbasedforward -e 100 -c 2 -a 0 -i 4 -k MAC -R 100.000000
v -t 3.313049818 -e sim_annotation 3.313049818 114 node 2 receive packet(vectorbasedforward) 4
r -t 3.391571001 -s 12 -d -1 -p vectorbasedforward -e 100 -c 2 -a 0 -i 3 -k MAC -R 100.000000
v -t 3.391571001 -e sim_annotation 3.391571001 115 node 12 receive packet(vectorbasedforward) 3
r -t 3.396212017 -s 11 -d -1 -p vectorbasedforward -e 100 -c 2 -a 0 -i 3 -k MAC -R 100.000000
v -t 3.396212017 -e sim_annotation 3.396212017 116 node 11 receive packet(vectorbasedforward) 3
d -t 3.396237017 -s 11 -d -1 -p vectorbasedforward -e 100 -c 2 -a 0 -i 3 -k RTR
v -t 3.396237017 -e sim_annotation 3.396237017 117 node 11 drop packet(vectorbasedforward) 3
r -t 3.404258496 -s 8 -d -1 -p vectorbasedforward -e 100 -c 2 -a 0 -i 3 -k MAC -R 100.000000
v -t 3.404258496 -e sim_annotation 3.404258496 118 node 8 receive packet(vectorbasedforward) 3
r -t 3.409760442 -s 7 -d -1 -p vectorbasedforward -e 100 -c 2 -a 0 -i 3 -k MAC -R 100.000000
v -t 3.409760442 -e sim_annotation 3.409760442 119 node 7 receive packet(vectorbasedforward) 3
+ -t 3.533448980 -s 8 -d -1 -p vectorbasedforward -e 100 -c 2 -a 0 -i 4 -k MAC 
- -t 3.533448980 -s 8 -d -1 -p vectorbasedforward -e 100 -c 2 -a 0 -i 4 -k MAC
h -t 3.533448980 -s 8 -d -1 -p vectorbasedforward -e 100 -c 2 -a 0 -i 4 -k MAC -R 100.000000
v -t 3.533448980 -e sim_annotation 3.533448980 120 node 8 sendout packet (vectorbasedforward) 4
r -t 3.656136475 -s 6 -d -1 -p vectorbasedforward -e 100 -c 2 -a 0 -i 4 -k MAC -R 100.000000
v -t 3.656136475 -e sim_annotation 3.656136475 121 node 6 receive packet(vectorbasedforward) 4
r -t 3.657165237 -s 10 -d -1 -p vectorbasedforward -e 100 -c 2 -a 0 -i 4 -k MAC -R 100.000000
v -t 3.657165237 -e sim_annotation 3.657165237 122 node 10 receive packet(vectorbasedforward) 4
r -t 3.663448980 -s 7 -d -1 -p vectorbasedforward -e 100 -c 2 -a 0 -i 4 -k MAC -R 100.000000
v -t 3.663448980 -e sim_annotation 3.663448980 123 node 7 receive packet(vectorbasedforward) 4
r -t 3.676076628 -s 12 -d -1 -p vectorbasedforward -e 100 -c 2 -a 0 -i 4 -k MAC -R 100.000000
v -t 3.676076628 -e sim_annotation 3.676076628 124 node 12 receive packet(vectorbasedforward) 4
r -t 3.679445613 -s 11 -d -1 -p vectorbasedforward -e 100 -c 2 -a 0 -i 4 -k MAC -R 100.000000
v -t 3.679445613 -e sim_annotation 3.679445613 125 node 11 receive packet(vectorbasedforward) 4
d -t 3.679470613 -s 11 -d -1 -p vectorbasedforward -e 100 -c 2 -a 0 -i 4 -k RTR
v -t 3.679470613 -e sim_annotation 3.679470613 126 node 11 drop packet(vectorbasedforward) 4
r -t 3.680115647 -s 3 -d -1 -p vectorbasedforward -e 100 -c 2 -a 0 -i 4 -k MAC -R 100.000000
v -t 3.680115647 -e sim_annotation 3.680115647 127 node 3 receive packet(vectorbasedforward) 4
+ -t 3.838266459 -s 1 -d -1 -p vectorbasedforward -e 100 -c 2 -a 0 -i 6 -k MAC 
- -t 3.838266459 -s 1 -d -1 -p vectorbasedforward -e 100 -c 2 -a 0 -i 6 -k MAC
h -t 3.838266459 -s 1 -d -1 -p vectorbasedforward -e 100 -c 2 -a 0 -i 6 -k MAC -R 100.000000
v -t 3.838266459 -e sim_annotation 3.838266459 128 node 1 sendout packet (vectorbasedforward) 6
+ -t 3.847874371 -s 3 -d -1 -p vectorbasedforward -e 100 -c 2 -a 0 -i 6 -k MAC 
- -t 3.847874371 -s 3 -d -1 -p vectorbasedforward -e 100 -c 2 -a 0 -i 6 -k MAC
h -t 3.847874371 -s 3 -d -1 -p vectorbasedforward -e 100 -c 2 -a 0 -i 6 -k MAC -R 100.000000
v -t 3.847874371 -e sim_annotation 3.847874371 129 node 3 sendout packet (vectorbasedforward) 6
+ -t 3.909359465 -s 7 -d -1 -p vectorbasedforward -e 100 -c 2 -a 0 -i 7 -k MAC 
- -t 3.909359465 -s 7 -d -1 -p vectorbasedforward -e 100 -c 2 -a 0 -i 7 -k MAC
h -t 3.909359465 -s 7 -d -1 -p vectorbasedforward -e 100 -c 2 -a 0 -i 7 -k MAC -R 100.000000
v -t 3.909359465 -e sim_annotation 3.909359465 130 node 7 sendout packet (vectorbasedforward) 7
r -t 3.946550730 -s 3 -d -1 -p vectorbasedforward -e 100 -c 2 -a 0 -i 6 -k MAC -R 100.000000
v -t 3.946550730 -e sim_annotation 3.946550730 131 node 3 receive packet(vectorbasedforward) 6
d -t 3.952907475 -s 4 -d -1 -p vectorbasedforward -e 100 -c 2 -a 0 -i 6 -k MAC
v -t 3.952907475 -e sim_annotation 3.952907475 132 node 4 drop packet(vectorbasedforward) 6
r -t 3.956158642 -s 1 -d -1 -p vectorbasedforward -e 100 -c 2 -a 0 -i 6 -k MAC -R 100.000000