s 0.001025000 _10_ MAC  --- 0 vectorbasedforward 100 [0 a000000 ffff0008 0] [energy 10000.000000 ei 0.000 es 0.000 et 0.000 er 0.000] ------- [10:0 10:255 0 0] 
r 0.132232638 _8_ MAC  --- 0 vectorbasedforward 100 [0 a000000 ffff0008 0] [energy 9999.939582 ei 0.000 es 0.000 et 0.000 er 0.060] ------- [10:0 10:255 0 0] 
r 0.147021633 _7_ MAC  --- 0 vectorbasedforward 100 [0 a000000 ffff0008 0] [energy 9999.939464 ei 0.001 es 0.000 et 0.000 er 0.060] ------- [10:0 10:255 0 0] 
s 0.499783371 _7_ MAC  --- 0 vectorbasedforward 100 [0 7000000 ffff0008 0] [energy 9999.939464 ei 0.001 es 0.000 et 0.000 er 0.060] ------- [10:0 10:255 0 0] 
r 0.645780004 _5_ MAC  --- 0 vectorbasedforward 100 [0 7000000 ffff0008 0] [energy 9999.935474 ei 0.005 es 0.000 et 0.000 er 0.060] ------- [10:0 10:255 0 0] 
r 0.645780004 _10_ MAC  --- 0 vectorbasedforward 100 [0 7000000 ffff0008 0] [energy 9999.776114 ei 0.004 es 0.000 et 0.160 er 0.060] ------- [10:0 10:255 0 0] 
N -t 1.000000 -n 0 -e 9999.992000
N -t 1.000000 -n 1 -e 9999.992000
N -t 1.000000 -n 2 -e 9999.992000
N -t 1.000000 -n 3 -e 9999.992000
N -t 1.000000 -n 4 -e 9999.992000
N -t 1.000000 -n 5 -e 9999.932640
N -t 1.000000 -n 6 -e 9999.992000
N -t 1.000000 -n 7 -e 9999.773280
N -t 1.000000 -n 8 -e 9999.932640
N -t 1.000000 -n 9 -e 9999.992000
N -t 1.000000 -n 10 -e 9999.773280
s 1.001025000 _10_ MAC  --- 1 vectorbasedforward 100 [0 a000000 ffff0008 0] [energy 9999.773280 ei 0.007 es 0.000 et 0.160 er 0.060] ------- [10:0 10:255 0 0] 
r 1.132232638 _8_ MAC  --- 1 vectorbasedforward 100 [0 a000000 ffff0008 0] [energy 9999.872222 ei 0.008 es 0.000 et 0.000 er 0.120] ------- [10:0 10:255 0 0] 
r 1.147021633 _7_ MAC  --- 1 vectorbasedforward 100 [0 a000000 ffff0008 0] [energy 9999.712744 ei 0.007 es 0.000 et 0.160 er 0.120] ------- [10:0 10:255 0 0] 
s 1.181292396 _8_ MAC  --- 0 vectorbasedforward 100 [0 8000000 ffff0008 0] [energy 9999.872222 ei 0.008 es 0.000 et 0.000 er 0.120] ------- [10:0 10:255 0 0] 
s 1.280178561 _5_ MAC  --- 0 vectorbasedforward 100 [0 5000000 ffff0008 0] [energy 9999.932640 ei 0.007 es 0.000 et 0.000 er 0.060] ------- [10:0 10:255 0 0] 
r 1.312500035 _10_ MAC  --- 0 vectorbasedforward 100 [0 8000000 ffff0008 0] [energy 9999.552060 ei 0.008 es 0.000 et 0.320 er 0.120] ------- [10:0 10:255 0 0] 
r 1.324185604 _6_ MAC  --- 0 vectorbasedforward 100 [0 8000000 ffff0008 0] [energy 9999.930047 ei 0.010 es 0.000 et 0.000 er 0.060] ------- [10:0 10:255 0 0] 
r 1.407319013 _3_ MAC  --- 0 vectorbasedforward 100 [0 5000000 ffff0008 0] [energy 9999.929381 ei 0.011 es 0.000 et 0.000 er 0.060] ------- [10:0 10:255 0 0] 
r 1.426175194 _7_ MAC  --- 0 vectorbasedforward 100 [0 5000000 ffff0008 0] [energy 9999.651151 ei 0.009 es 0.000 et 0.160 er 0.180] ------- [10:0 10:255 0 0] 
s 1.499783371 _7_ MAC  --- 1 vectorbasedforward 100 [0 7000000 ffff0008 0] [energy 9999.651151 ei 0.009 es 0.000 et 0.160 er 0.180] ------- [10:0 10:255 0 0] 
r 1.645780004 _5_ MAC  --- 1 vectorbasedforward 100 [0 7000000 ffff0008 0] [energy 9999.708754 ei 0.011 es 0.000 et 0.160 er 0.120] ------- [10:0 10:255 0 0] 
r 1.645780004 _10_ MAC  --- 1 vectorbasedforward 100 [0 7000000 ffff0008 0] [energy 9999.490034 ei 0.010 es 0.000 et 0.320 er 0.180] ------- [10:0 10:255 0 0] 
N -t 2.000000 -n 0 -e 9999.984000
N -t 2.000000 -n 1 -e 9999.984000
N -t 2.000000 -n 2 -e 9999.984000
N -t 2.000000 -n 3 -e 9999.924640
N -t 2.000000 -n 4 -e 9999.984000
N -t 2.000000 -n 5 -e 9999.705920
N -t 2.000000 -n 6 -e 9999.924640
N -t 2.000000 -n 7 -e 9999.487200
N -t 2.000000 -n 8 -e 9999.705920
N -t 2.000000 -n 9 -e 9999.984000
N -t 2.000000 -n 10 -e 9999.487200
s 2.001025000 _10_ MAC  --- 2 vectorbasedforward 100 [0 a000000 ffff0008 0] [energy 9999.487200 ei 0.013 es 0.000 et 0.320 er 0.180] ------- [10:0 10:255 0 0] 
s 2.064066457 _6_ MAC  --- 0 vectorbasedforward 100 [0 6000000 ffff0008 0] [energy 9999.924640 ei 0.015 es 0.000 et 0.000 er 0.060] ------- [10:0 10:255 0 0] 
D 2.132232638 _8_ MAC Error/Collision 2 vectorbasedforward 100 [0 a000000 ffff0008 0] [energy 9999.589457 ei 0.014 es 0.000 et 0.160 er 0.236] ------- [10:0 10:255 0 0] 
r 2.147021633 _7_ MAC  --- 2 vectorbasedforward 100 [0 a000000 ffff0008 0] [energy 9999.426664 ei 0.013 es 0.000 et 0.320 er 0.240] ------- [10:0 10:255 0 0] 
D 2.206959665 _8_ MAC Error/Collision 0 vectorbasedforward 100 [0 6000000 ffff0008 0] [energy 9999.589457 ei 0.014 es 0.000 et 0.160 er 0.236] ------- [10:0 10:255 0 0] 
r 2.210063090 _4_ MAC  --- 0 vectorbasedforward 100 [0 6000000 ffff0008 0] [energy 9999.922959 ei 0.017 es 0.000 et 0.000 er 0.060] ------- [10:0 10:255 0 0] 
s 2.279611687 _8_ MAC  --- 1 vectorbasedforward 100 [0 8000000 ffff0008 0] [energy 9999.589457 ei 0.014 es 0.000 et 0.160 er 0.236] ------- [10:0 10:255 0 0] 
s 2.280178561 _5_ MAC  --- 1 vectorbasedforward 100 [0 5000000 ffff0008 0] [energy 9999.705920 ei 0.014 es 0.000 et 0.160 er 0.120] ------- [10:0 10:255 0 0] 
s 2.280628574 _3_ MAC  --- 0 vectorbasedforward 100 [0 3000000 ffff0008 0] [energy 9999.924640 ei 0.015 es 0.000 et 0.000 er 0.060] ------- [10:0 10:255 0 0] 
r 2.404309233 _9_ MAC  --- 0 vectorbasedforward 100 [0 3000000 ffff0008 0] [energy 9999.921406 ei 0.019 es 0.000 et 0.000 er 0.060] ------- [10:0 10:255 0 0] 
D 2.404334233 _9_ RTR  SHP 0 vectorbasedforward 100 [0 3000000 ffff0008 0] [energy 9999.921406 ei 0.019 es 0.000 et 0.000 er 0.060] ------- [10:0 10:255 0 0] 
r 2.407319013 _3_ MAC  --- 1 vectorbasedforward 100 [0 5000000 ffff0008 0] [energy 9999.727377 ei 0.018 es 0.000 et 0.160 er 0.095] ------- [10:0 10:255 0 0] 
r 2.407769026 _5_ MAC  --- 0 vectorbasedforward 100 [0 3000000 ffff0008 0] [energy 9999.507986 ei 0.016 es 0.000 et 0.320 er 0.156] ------- [10:0 10:255 0 0] 
r 2.410819326 _10_ MAC  --- 1 vectorbasedforward 100 [0 8000000 ffff0008 0] [energy 9999.265193 ei 0.015 es 0.000 et 0.480 er 0.240] ------- [10:0 10:255 0 0] 
r 2.422504895 _6_ MAC  --- 1 vectorbasedforward 100 [0 8000000 ffff0008 0] [energy 9999.702540 ei 0.017 es 0.000 et 0.160 er 0.120] ------- [10:0 10:255 0 0] 
r 2.426175194 _7_ MAC  --- 1 vectorbasedforward 100 [0 5000000 ffff0008 0] [energy 9999.365071 ei 0.015 es 0.000 et 0.320 er 0.300] ------- [10:0 10:255 0 0] 
r 2.426625207 _1_ MAC  --- 0 vectorbasedforward 100 [0 3000000 ffff0008 0] [energy 9999.921227 ei 0.019 es 0.000 et 0.000 er 0.060] ------- [10:0 10:255 0 0] 
r 2.427295241 _4_ MAC  --- 0 vectorbasedforward 100 [0 3000000 ffff0008 0] [energy 9999.861862 ei 0.018 es 0.000 et 0.000 er 0.120] ------- [10:0 10:255 0 0] 
s 2.499783371 _7_ MAC  --- 2 vectorbasedforward 100 [0 7000000 ffff0008 0] [energy 9999.365071 ei 0.015 es 0.000 et 0.320 er 0.300] ------- [10:0 10:255 0 0] 
r 2.645780004 _5_ MAC  --- 2 vectorbasedforward 100 [0 7000000 ffff0008 0] [energy 9999.446722 ei 0.018 es 0.000 et 0.320 er 0.216] ------- [10:0 10:255 0 0] 
r 2.645780004 _10_ MAC  --- 2 vectorbasedforward 100 [0 7000000 ffff0008 0] [energy 9999.203954 ei 0.016 es 0.000 et 0.480 er 0.300] ------- [10:0 10:255 0 0] 
N -t 3.000000 -n 0 -e 9999.976000
N -t 3.000000 -n 1 -e 9999.916640
N -t 3.000000 -n 2 -e 9999.976000
N -t 3.000000 -n 3 -e 9999.722636
N -t 3.000000 -n 4 -e 9999.857280
N -t 3.000000 -n 5 -e 9999.443888
N -t 3.000000 -n 6 -e 9999.697920
N -t 3.000000 -n 7 -e 9999.201120
N -t 3.000000 -n 8 -e 9999.423753
N -t 3.000000 -n 9 -e 9999.916640
N -t 3.000000 -n 10 -e 9999.201120
s 3.001025000 _10_ MAC  --- 3 vectorbasedforward 100 [0 a000000 ffff0008 0] [energy 9999.201120 ei 0.019 es 0.000 et 0.480 er 0.300] ------- [10:0 10:255 0 0] 
s 3.019183262 _4_ MAC  --- 0 vectorbasedforward 100 [0 4000000 ffff0008 0] [energy 9999.857280 ei 0.023 es 0.000 et 0.000 er 0.120] ------- [10:0 10:255 0 0] 
r 3.132232638 _8_ MAC  --- 3 vectorbasedforward 100 [0 a000000 ffff0008 0] [energy 9999.363335 ei 0.021 es 0.000 et 0.320 er 0.296] ------- [10:0 10:255 0 0] 
r 3.145816584 _9_ MAC  --- 0 vectorbasedforward 100 [0 4000000 ffff0008 0] [energy 9999.856113 ei 0.024 es 0.000 et 0.000 er 0.120] ------- [10:0 10:255 0 0] 
D 3.145841584 _9_ RTR  SHP 0 vectorbasedforward 100 [0 4000000 ffff0008 0] [energy 9999.856113 ei 0.024 es 0.000 et 0.000 er 0.120] ------- [10:0 10:255 0 0] 
r 3.146323714 _2_ MAC  --- 0 vectorbasedforward 100 [0 4000000 ffff0008 0] [energy 9999.915469 ei 0.025 es 0.000 et 0.000 er 0.060] ------- [10:0 10:255 0 0] 
r 3.147021633 _7_ MAC  --- 3 vectorbasedforward 100 [0 a000000 ffff0008 0] [energy 9999.140584 ei 0.019 es 0.000 et 0.480 er 0.360] ------- [10:0 10:255 0 0] 
r 3.165179895 _6_ MAC  --- 0 vectorbasedforward 100 [0 4000000 ffff0008 0] [energy 9999.637239 ei 0.023 es 0.000 et 0.160 er 0.180] ------- [10:0 10:255 0 0] 
r 3.165849929 _3_ MAC  --- 0 vectorbasedforward 100 [0 4000000 ffff0008 0] [energy 9999.661949 ei 0.023 es 0.000 et 0.160 er 0.155] ------- [10:0 10:255 0 0] 
s 3.203682718 _6_ MAC  --- 1 vectorbasedforward 100 [0 6000000 ffff0008 0] [energy 9999.637239 ei 0.023 es 0.000 et 0.160 er 0.180] ------- [10:0 10:255 0 0] 
s 3.280178561 _5_ MAC  --- 2 vectorbasedforward 100 [0 5000000 ffff0008 0] [energy 9999.443888 ei 0.020 es 0.000 et 0.320 er 0.216] ------- [10:0 10:255 0 0] 
s 3.280628574 _3_ MAC  --- 1 vectorbasedforward 100 [0 3000000 ffff0008 0] [energy 9999.661949 ei 0.023 es 0.000 et 0.160 er 0.155] ------- [10:0 10:255 0 0] 
s 3.298057066 _1_ MAC  --- 0 vectorbasedforward 100 [0 1000000 ffff0008 0] [energy 9999.916640 ei 0.023 es 0.000 et 0.000 er 0.060] ------- [10:0 10:255 0 0] 
r 3.346575926 _8_ MAC  --- 1 vectorbasedforward 100 [0 6000000 ffff0008 0] [energy 9999.302260 ei 0.022 es 0.000 et 0.320 er 0.356] ------- [10:0 10:255 0 0] 
D 3.349679351 _4_ MAC Error/Collision 1 vectorbasedforward 100 [0 6000000 ffff0008 0] [energy 9999.577551 ei 0.024 es 0.000 et 0.160 er 0.238] ------- [10:0 10:255 0 0] 
D 3.404309233 _9_ MAC Error/Collision 1 vectorbasedforward 100 [0 3000000 ffff0008 0] [energy 9999.777588 ei 0.025 es 0.000 et 0.000 er 0.197] ------- [10:0 10:255 0 0] 
D 3.407319013 _3_ MAC Error/Collision 2 vectorbasedforward 100 [0 5000000 ffff0008 0] [energy 9999.438462 ei 0.024 es 0.000 et 0.320 er 0.218] ------- [10:0 10:255 0 0] 
r 3.407769026 _5_ MAC  --- 1 vectorbasedforward 100 [0 3000000 ffff0008 0] [energy 9999.245954 ei 0.023 es 0.000 et 0.480 er 0.251] ------- [10:0 10:255 0 0] 
r 3.421773323 _0_ MAC  --- 0 vectorbasedforward 100 [0 1000000 ffff0008 0] [energy 9999.913266 ei 0.027 es 0.000 et 0.000 er 0.060] ------- [10:0 10:255 0 0] 
r 3.426175194 _7_ MAC  --- 2 vectorbasedforward 100 [0 5000000 ffff0008 0] [energy 9999.078991 ei 0.021 es 0.000 et 0.480 er 0.420] ------- [10:0 10:255 0 0] 
r 3.426625207 _1_ MAC  --- 1 vectorbasedforward 100 [0 3000000 ffff0008 0] [energy 9999.717829 ei 0.026 es 0.000 et 0.160 er 0.096] ------- [10:0 10:255 0 0] 
D 3.427105795 _9_ MAC Error/Collision 0 vectorbasedforward 100 [0 1000000 ffff0008 0] [energy 9999.777588 ei 0.025 es 0.000 et 0.000 er 0.197] ------- [10:0 10:255 0 0] 
D 3.427295241 _4_ MAC Error/Collision 1 vectorbasedforward 100 [0 3000000 ffff0008 0] [energy 9999.577551 ei 0.024 es 0.000 et 0.160 er 0.238] ------- [10:0 10:255 0 0] 
D 3.444053699 _3_ MAC Error/Collision 0 vectorbasedforward 100 [0 1000000 ffff0008 0] [energy 9999.438462 ei 0.024 es 0.000 et 0.320 er 0.218] ------- [10:0 10:255 0 0] 
s 3.499783371 _7_ MAC  --- 3 vectorbasedforward 100 [0 7000000 ffff0008 0] [energy 9999.078991 ei 0.021 es 0.000 et 0.480 er 0.420] ------- [10:0 10:255 0 0] 
r 3.645780004 _5_ MAC  --- 3 vectorbasedforward 100 [0 7000000 ffff0008 0] [energy 9999.184690 ei 0.024 es 0.000 et 0.480 er 0.311] ------- [10:0 10:255 0 0] 
r 3.645780004 _10_ MAC  --- 3 vectorbasedforward 100 [0 7000000 ffff0008 0] [energy 9998.977234 ei 0.023 es 0.000 et 0.640 er 0.360] ------- [10:0 10:255 0 0] 
N -t 4.000000 -n 0 -e 9999.908640
N -t 4.000000 -n 1 -e 9999.713242
N -t 4.000000 -n 2 -e 9999.908640
N -t 4.000000 -n 3 -e 9999.434014
N -t 4.000000 -n 4 -e 9999.572969
N -t 4.000000 -n 5 -e 9999.181856
N -t 4.000000 -n 6 -e 9999.471200
N -t 4.000000 -n 7 -e 9998.915040
N -t 4.000000 -n 8 -e 9999.297033
N -t 4.000000 -n 9 -e 9999.773005
N -t 4.000000 -n 10 -e 9998.974400
s 4.001025000 _10_ MAC  --- 4 vectorbasedforward 100 [0 a000000 ffff0008 0] [energy 9998.974400 ei 0.026 es 0.000 et 0.640 er 0.360] ------- [10:0 10:255 0 0] 
r 4.132232638 _8_ MAC  --- 4 vectorbasedforward 100 [0 a000000 ffff0008 0] [energy 9999.236615 ei 0.027 es 0.000 et 0.320 er 0.416] ------- [10:0 10:255 0 0] 
s 4.136065794 _2_ MAC  --- 0 vectorbasedforward 100 [0 2000000 ffff0008 0] [energy 9999.908640 ei 0.031 es 0.000 et 0.000 er 0.060] ------- [10:0 10:255 0 0] 
r 4.147021633 _7_ MAC  --- 4 vectorbasedforward 100 [0 a000000 ffff0008 0] [energy 9998.854504 ei 0.025 es 0.000 et 0.640 er 0.480] ------- [10:0 10:255 0 0] 
s 4.181292396 _8_ MAC  --- 3 vectorbasedforward 100 [0 8000000 ffff0008 0] [energy 9999.236615 ei 0.027 es 0.000 et 0.320 er 0.416] ------- [10:0 10:255 0 0] 
r 4.256579167 _9_ MAC  --- 0 vectorbasedforward 100 [0 2000000 ffff0008 0] [energy 9999.711592 ei 0.031 es 0.000 et 0.000 er 0.257] ------- [10:0 10:255 0 0] 
D 4.256604167 _9_ RTR  SHP 0 vectorbasedforward 100 [0 2000000 ffff0008 0] [energy 9999.711592 ei 0.031 es 0.000 et 0.000 er 0.257] ------- [10:0 10:255 0 0] 
r 4.263206247 _4_ MAC  --- 0 vectorbasedforward 100 [0 2000000 ffff0008 0] [energy 9999.511503 ei 0.030 es 0.000 et 0.160 er 0.298] ------- [10:0 10:255 0 0] 
r 4.273800821 _0_ MAC  --- 0 vectorbasedforward 100 [0 2000000 ffff0008 0] [energy 9999.847090 ei 0.033 es 0.000 et 0.000 er 0.120] ------- [10:0 10:255 0 0] 
s 4.280178561 _5_ MAC  --- 3 vectorbasedforward 100 [0 5000000 ffff0008 0] [energy 9999.181856 ei 0.027 es 0.000 et 0.480 er 0.311] ------- [10:0 10:255 0 0] 
s 4.298057066 _1_ MAC  --- 1 vectorbasedforward 100 [0 1000000 ffff0008 0] [energy 9999.713242 ei 0.030 es 0.000 et 0.160 er 0.096] ------- [10:0 10:255 0 0] 
r 4.312500035 _10_ MAC  --- 3 vectorbasedforward 100 [0 8000000 ffff0008 0] [energy 9998.753180 ei 0.027 es 0.000 et 0.800 er 0.420] ------- [10:0 10:255 0 0] 
r 4.324185604 _6_ MAC  --- 3 vectorbasedforward 100 [0 8000000 ffff0008 0] [energy 9999.409247 ei 0.031 es 0.000 et 0.320 er 0.240] ------- [10:0 10:255 0 0] 
D 4.407319013 _3_ MAC Error/Collision 3 vectorbasedforward 100 [0 5000000 ffff0008 0] [energy 9999.343845 ei 0.031 es 0.000 et 0.320 er 0.305] ------- [10:0 10:255 0 0] 
r 4.421773323 _0_ MAC  --- 1 vectorbasedforward 100 [0 1000000 ffff0008 0] [energy 9999.786546 ei 0.033 es 0.000 et 0.000 er 0.180] ------- [10:0 10:255 0 0] 
r 4.426175194 _7_ MAC  --- 3 vectorbasedforward 100 [0 5000000 ffff0008 0] [energy 9998.792911 ei 0.027 es 0.000 et 0.640 er 0.540] ------- [10:0 10:255 0 0] 
r 4.427105795 _9_ MAC  --- 1 vectorbasedforward 100 [0 1000000 ffff0008 0] [energy 9999.650868 ei 0.032 es 0.000 et 0.000 er 0.317] ------- [10:0 10:255 0 0] 
D 4.427130795 _9_ RTR  SHP 1 vectorbasedforward 100 [0 1000000 ffff0008 0] [energy 9999.650868 ei 0.032 es 0.000 et 0.000 er 0.317] ------- [10:0 10:255 0 0] 
D 4.444053699 _3_ MAC Error/Collision 1 vectorbasedforward 100 [0 1000000 ffff0008 0] [energy 9999.343845 ei 0.031 es 0.000 et 0.320 er 0.305] ------- [10:0 10:255 0 0] 
s 4.499783371 _7_ MAC  --- 4 vectorbasedforward 100 [0 7000000 ffff0008 0] [energy 9998.792911 ei 0.027 es 0.000 et 0.640 er 0.540] ------- [10:0 10:255 0 0] 
r 4.645780004 _5_ MAC  --- 4 vectorbasedforward 100 [0 7000000 ffff0008 0] [energy 9998.957970 ei 0.031 es 0.000 et 0.640 er 0.371] ------- [10:0 10:255 0 0] 
r 4.645780004 _10_ MAC  --- 4 vectorbasedforward 100 [0 7000000 ffff0008 0] [energy 9998.691154 ei 0.029 es 0.000 et 0.800 er 0.480] ------- [10:0 10:255 0 0] 
N -t 5.000000 -n 0 -e 9999.781920
N -t 5.000000 -n 1 -e 9999.545882
N -t 5.000000 -n 2 -e 9999.741280
N -t 5.000000 -n 3 -e 9999.339397
N -t 5.000000 -n 4 -e 9999.505609
N -t 5.000000 -n 5 -e 9998.955136
N -t 5.000000 -n 6 -e 9999.403840
N -t 5.000000 -n 7 -e 9998.628960
N -t 5.000000 -n 8 -e 9999.070313
N -t 5.000000 -n 9 -e 9999.646285
N -t 5.000000 -n 10 -e 9998.688320
s 5.001025000 _10_ MAC  --- 5 vectorbasedforward 100 [0 a000000 ffff0008 0] [energy 9998.688320 ei 0.032 es 0.000 et 0.800 er 0.480] ------- [10:0 10:255 0 0] 
s 5.064066457 _6_ MAC  --- 3 vectorbasedforward 100 [0 6000000 ffff0008 0] [energy 9999.403840 ei 0.036 es 0.000 et 0.320 er 0.240] ------- [10:0 10:255 0 0] 
D 5.132232638 _8_ MAC Error/Collision 5 vectorbasedforward 100 [0 a000000 ffff0008 0] [energy 9998.953849 ei 0.034 es 0.000 et 0.480 er 0.532] ------- [10:0 10:255 0 0] 
r 5.147021633 _7_ MAC  --- 5 vectorbasedforward 100 [0 a000000 ffff0008 0] [energy 9998.568424 ei 0.032 es 0.000 et 0.800 er 0.600] ------- [10:0 10:255 0 0] 
D 5.206959665 _8_ MAC Error/Collision 3 vectorbasedforward 100 [0 6000000 ffff0008 0] [energy 9998.953849 ei 0.034 es 0.000 et 0.480 er 0.532] ------- [10:0 10:255 0 0] 
r 5.210063090 _4_ MAC  --- 3 vectorbasedforward 100 [0 6000000 ffff0008 0] [energy 9999.444569 ei 0.037 es 0.000 et 0.160 er 0.358] ------- [10:0 10:255 0 0] 
s 5.280178561 _5_ MAC  --- 4 vectorbasedforward 100 [0 5000000 ffff0008 0] [energy 9998.955136 ei 0.033 es 0.000 et 0.640 er 0.371] ------- [10:0 10:255 0 0] 
s 5.281279903 _8_ MAC  --- 4 vectorbasedforward 100 [0 8000000 ffff0008 0] [energy 9998.953849 ei 0.034 es 0.000 et 0.480 er 0.532] ------- [10:0 10:255 0 0] 
r 5.407319013 _3_ MAC  --- 4 vectorbasedforward 100 [0 5000000 ffff0008 0] [energy 9999.276779 ei 0.038 es 0.000 et 0.320 er 0.365] ------- [10:0 10:255 0 0] 
r 5.412487541 _10_ MAC  --- 4 vectorbasedforward 100 [0 8000000 ffff0008 0] [energy 9998.466300 ei 0.034 es 0.000 et 0.960 er 0.540] ------- [10:0 10:255 0 0] 
r 5.424173110 _6_ MAC  --- 4 vectorbasedforward 100 [0 8000000 ffff0008 0] [energy 9999.181727 ei 0.038 es 0.000 et 0.480 er 0.300] ------- [10:0 10:255 0 0] 
r 5.426175194 _7_ MAC  --- 4 vectorbasedforward 100 [0 5000000 ffff0008 0] [energy 9998.506831 ei 0.033 es 0.000 et 0.800 er 0.660] ------- [10:0 10:255 0 0] 
s 5.499783371 _7_ MAC  --- 5 vectorbasedforward 100 [0 7000000 ffff0008 0] [energy 9998.506831 ei 0.033 es 0.000 et 0.800 er 0.660] ------- [10:0 10:255 0 0] 
r 5.645780004 _5_ MAC  --- 5 vectorbasedforward 100 [0 7000000 ffff0008 0] [energy 9998.731250 ei 0.037 es 0.000 et 0.800 er 0.431] ------- [10:0 10:255 0 0] 
r 5.645780004 _10_ MAC  --- 5 vectorbasedforward 100 [0 7000000 ffff0008 0] [energy 9998.405074 ei 0.035 es 0.000 et 0.960 er 0.600] ------- [10:0 10:255 0 0] 
N -t 6.000000 -n 0 -e 9999.773920
N -t 6.000000 -n 1 -e 9999.537882
N -t 6.000000 -n 2 -e 9999.733280
N -t 6.000000 -n 3 -e 9999.272037
N -t 6.000000 -n 4 -e 9999.438249
N -t 6.000000 -n 5 -e 9998.728416
N -t 6.000000 -n 6 -e 9999.177120
N -t 6.000000 -n 7 -e 9998.342880
N -t 6.000000 -n 8 -e 9998.788145
N -t 6.000000 -n 9 -e 9999.638285
N -t 6.000000 -n 10 -e 9998.402240
s 6.001025000 _10_ MAC  --- 6 vectorbasedforward 100 [0 a000000 ffff0008 0] [energy 9998.402240 ei 0.038 es 0.000 et 0.960 er 0.600] ------- [10:0 10:255 0 0] 
s 6.019183262 _4_ MAC  --- 3 vectorbasedforward 100 [0 4000000 ffff0008 0] [energy 9999.438249 ei 0.044 es 0.000 et 0.160 er 0.358] ------- [10:0 10:255 0 0] 
r 6.132232638 _8_ MAC  --- 6 vectorbasedforward 100 [0 a000000 ffff0008 0] [energy 9998.727727 ei 0.040 es 0.000 et 0.640 er 0.592] ------- [10:0 10:255 0 0] 
r 6.145816584 _9_ MAC  --- 3 vectorbasedforward 100 [0 4000000 ffff0008 0] [energy 9999.577758 ei 0.045 es 0.000 et 0.000 er 0.377] ------- [10:0 10:255 0 0] 
D 6.145841584 _9_ RTR  SHP 3 vectorbasedforward 100 [0 4000000 ffff0008 0] [energy 9999.577758 ei 0.045 es 0.000 et 0.000 er 0.377] ------- [10:0 10:255 0 0] 
r 6.146323714 _2_ MAC  --- 3 vectorbasedforward 100 [0 4000000 ffff0008 0] [energy 9999.672749 ei 0.047 es 0.000 et 0.160 er 0.120] ------- [10:0 10:255 0 0] 
r 6.147021633 _7_ MAC  --- 6 vectorbasedforward 100 [0 a000000 ffff0008 0] [energy 9998.282344 ei 0.038 es 0.000 et 0.960 er 0.720] ------- [10:0 10:255 0 0] 
r 6.165179895 _6_ MAC  --- 3 vectorbasedforward 100 [0 4000000 ffff0008 0] [energy 9999.116439 ei 0.044 es 0.000 et 0.480 er 0.360] ------- [10:0 10:255 0 0] 
r 6.165849929 _3_ MAC  --- 3 vectorbasedforward 100 [0 4000000 ffff0008 0] [energy 9999.211350 ei 0.044 es 0.000 et 0.320 er 0.425] ------- [10:0 10:255 0 0] 
s 6.261528014 _6_ MAC  --- 4 vectorbasedforward 100 [0 6000000 ffff0008 0] [energy 9999.116439 ei 0.044 es 0.000 et 0.480 er 0.360] ------- [10:0 10:255 0 0] 
s 6.280178561 _5_ MAC  --- 5 vectorbasedforward 100 [0 5000000 ffff0008 0] [energy 9998.728416 ei 0.040 es 0.000 et 0.800 er 0.431] ------- [10:0 10:255 0 0] 
s 6.280628574 _3_ MAC  --- 4 vectorbasedforward 100 [0 3000000 ffff0008 0] [energy 9999.211350 ei 0.044 es 0.000 et 0.320 er 0.425] ------- [10:0 10:255 0 0] 
r 6.404309233 _9_ MAC  --- 4 vectorbasedforward 100 [0 3000000 ffff0008 0] [energy 9999.516330 ei 0.047 es 0.000 et 0.000 er 0.437] ------- [10:0 10:255 0 0] 
D 6.404334233 _9_ RTR  SHP 4 vectorbasedforward 100 [0 3000000 ffff0008 0] [energy 9999.516330 ei 0.047 es 0.000 et 0.000 er 0.437] ------- [10:0 10:255 0 0] 
r 6.404421221 _8_ MAC  --- 4 vectorbasedforward 100 [0 6000000 ffff0008 0] [energy 9998.666190 ei 0.042 es 0.000 et 0.640 er 0.652] ------- [10:0 10:255 0 0] 
r 6.407319013 _3_ MAC  --- 5 vectorbasedforward 100 [0 5000000 ffff0008 0] [energy 9999.015414 ei 0.044 es 0.000 et 0.480 er 0.460] ------- [10:0 10:255 0 0] 
D 6.407524647 _4_ MAC Error/Collision 4 vectorbasedforward 100 [0 6000000 ffff0008 0] [energy 9999.201441 ei 0.046 es 0.000 et 0.320 er 0.433] ------- [10:0 10:255 0 0] 
r 6.407769026 _5_ MAC  --- 4 vectorbasedforward 100 [0 3000000 ffff0008 0] [energy 9998.530481 ei 0.042 es 0.000 et 0.960 er 0.467] ------- [10:0 10:255 0 0] 
r 6.426175194 _7_ MAC  --- 5 vectorbasedforward 100 [0 5000000 ffff0008 0] [energy 9998.220751 ei 0.039 es 0.000 et 0.960 er 0.780] ------- [10:0 10:255 0 0] 
r 6.426625207 _1_ MAC  --- 4 vectorbasedforward 100 [0 3000000 ffff0008 0] [energy 9999.475109 ei 0.048 es 0.000 et 0.320 er 0.156] ------- [10:0 10:255 0 0] 
D 6.427295241 _4_ MAC Error/Collision 4 vectorbasedforward 100 [0 3000000 ffff0008 0] [energy 9999.201441 ei 0.046 es 0.000 et 0.320 er 0.433] ------- [10:0 10:255 0 0] 
s 6.499783371 _7_ MAC  --- 6 vectorbasedforward 100 [0 7000000 ffff0008 0] [energy 9998.220751 ei 0.039 es 0.000 et 0.960 er 0.780] ------- [10:0 10:255 0 0] 
s 6.511505727 _3_ MAC  --- 3 vectorbasedforward 100 [0 3000000 ffff0008 0] [energy 9999.015414 ei 0.044 es 0.000 et 0.480 er 0.460] ------- [10:0 10:255 0 0] 
r 6.635186386 _9_ MAC  --- 3 vectorbasedforward 100 [0 3000000 ffff0008 0] [energy 9999.455123 ei 0.048 es 0.000 et 0.000 er 0.497] ------- [10:0 10:255 0 0] 
D 6.635211386 _9_ RTR  SHP 3 vectorbasedforward 100 [0 3000000 ffff0008 0] [energy 9999.455123 ei 0.048 es 0.000 et 0.000 er 0.497] ------- [10:0 10:255 0 0] 
D 6.638646179 _5_ MAC Error/Collision 3 vectorbasedforward 100 [0 3000000 ffff0008 0] [energy 9998.463924 ei 0.044 es 0.000 et 0.960 er 0.532] ------- [10:0 10:255 0 0] 
D 6.645780004 _5_ MAC Error/Collision 6 vectorbasedforward 100 [0 7000000 ffff0008 0] [energy 9998.463924 ei 0.044 es 0.000 et 0.960 er 0.532] ------- [10:0 10:255 0 0] 
r 6.645780004 _10_ MAC  --- 6 vectorbasedforward 100 [0 7000000 ffff0008 0] [energy 9998.178354 ei 0.042 es 0.000 et 1.120 er 0.660] ------- [10:0 10:255 0 0] 
r 6.657502360 _1_ MAC  --- 3 vectorbasedforward 100 [0 3000000 ffff0008 0] [energy 9999.413902 ei 0.050 es 0.000 et 0.320 er 0.216] ------- [10:0 10:255 0 0] 
r 6.658172394 _4_ MAC  --- 3 vectorbasedforward 100 [0 3000000 ffff0008 0] [energy 9999.140234 ei 0.047 es 0.000 et 0.320 er 0.493] ------- [10:0 10:255 0 0] 
N -t 7.000000 -n 0 -e 9999.765920
N -t 7.000000 -n 1 -e 9999.411162
N -t 7.000000 -n 2 -e 9999.665920
N -t 7.000000 -n 3 -e 9998.851313
N -t 7.000000 -n 4 -e 9999.137499
N -t 7.000000 -n 5 -e 9998.461090
N -t 7.000000 -n 6 -e 9998.950400
N -t 7.000000 -n 7 -e 9998.056800
N -t 7.000000 -n 8 -e 9998.661425
N -t 7.000000 -n 9 -e 9999.452205
N -t 7.000000 -n 10 -e 9998.175520
s 7.001025000 _10_ MAC  --- 7 vectorbasedforward 100 [0 a000000 ffff0008 0] [energy 9998.175520 ei 0.044 es 0.000 et 1.120 er 0.660] ------- [10:0 10:255 0 0] 
r 7.132232638 _8_ MAC  --- 7 vectorbasedforward 100 [0 a000000 ffff0008 0] [energy 9998.601007 ei 0.047 es 0.000 et 0.640 er 0.712] ------- [10:0 10:255 0 0] 
s 7.136065794 _2_ MAC  --- 3 vectorbasedforward 100 [0 2000000 ffff0008 0] [energy 9999.665920 ei 0.054 es 0.000 et 0.160 er 0.120] ------- [10:0 10:255 0 0] 
r 7.147021633 _7_ MAC  --- 7 vectorbasedforward 100 [0 a000000 ffff0008 0] [energy 9997.996264 ei 0.044 es 0.000 et 1.120 er 0.840] ------- [10:0 10:255 0 0] 
s 7.181292396 _8_ MAC  --- 6 vectorbasedforward 100 [0 8000000 ffff0008 0] [energy 9998.601007 ei 0.047 es 0.000 et 0.640 er 0.712] ------- [10:0 10:255 0 0] 
r 7.256579167 _9_ MAC  --- 3 vectorbasedforward 100 [0 2000000 ffff0008 0] [energy 9999.390792 ei 0.052 es 0.000 et 0.000 er 0.557] ------- [10:0 10:255 0 0] 
D 7.256604167 _9_ RTR  SHP 3 vectorbasedforward 100 [0 2000000 ffff0008 0] [energy 9999.390792 ei 0.052 es 0.000 et 0.000 er 0.557] ------- [10:0 10:255 0 0] 
r 7.263206247 _4_ MAC  --- 3 vectorbasedforward 100 [0 2000000 ffff0008 0] [energy 9999.076034 ei 0.051 es 0.000 et 0.320 er 0.553] ------- [10:0 10:255 0 0] 
r 7.273800821 _0_ MAC  --- 3 vectorbasedforward 100 [0 2000000 ffff0008 0] [energy 9999.704370 ei 0.056 es 0.000 et 0.000 er 0.240] ------- [10:0 10:255 0 0] 
s 7.280628574 _3_ MAC  --- 5 vectorbasedforward 100 [0 3000000 ffff0008 0] [energy 9998.851313 ei 0.049 es 0.000 et 0.640 er 0.460] ------- [10:0 10:255 0 0] 
s 7.298057066 _1_ MAC  --- 4 vectorbasedforward 100 [0 1000000 ffff0008 0] [energy 9999.411162 ei 0.052 es 0.000 et 0.320 er 0.216] ------- [10:0 10:255 0 0] 
r 7.312500035 _10_ MAC  --- 6 vectorbasedforward 100 [0 8000000 ffff0008 0] [energy 9997.954300 ei 0.046 es 0.000 et 1.280 er 0.720] ------- [10:0 10:255 0 0] 
r 7.324185604 _6_ MAC  --- 6 vectorbasedforward 100 [0 8000000 ffff0008 0] [energy 9998.888447 ei 0.052 es 0.000 et 0.640 er 0.420] ------- [10:0 10:255 0 0] 
D 7.404309233 _9_ MAC Error/Collision 5 vectorbasedforward 100 [0 3000000 ffff0008 0] [energy 9999.313153 ei 0.053 es 0.000 et 0.000 er 0.634] ------- [10:0 10:255 0 0] 
r 7.407769026 _5_ MAC  --- 5 vectorbasedforward 100 [0 3000000 ffff0008 0] [energy 9998.398468 ei 0.049 es 0.000 et 0.960 er 0.592] ------- [10:0 10:255 0 0] 
r 7.421773323 _0_ MAC  --- 4 vectorbasedforward 100 [0 1000000 ffff0008 0] [energy 9999.643826 ei 0.056 es 0.000 et 0.000 er 0.300] ------- [10:0 10:255 0 0] 
r 7.426625207 _1_ MAC  --- 5 vectorbasedforward 100 [0 3000000 ffff0008 0] [energy 9999.212352 ei 0.055 es 0.000 et 0.480 er 0.253] ------- [10:0 10:255 0 0] 
D 7.427105795 _9_ MAC Error/Collision 4 vectorbasedforward 100 [0 1000000 ffff0008 0] [energy 9999.313153 ei 0.053 es 0.000 et 0.000 er 0.634] ------- [10:0 10:255 0 0] 
r 7.427295241 _4_ MAC  --- 5 vectorbasedforward 100 [0 3000000 ffff0008 0] [energy 9999.015361 ei 0.052 es 0.000 et 0.320 er 0.613] ------- [10:0 10:255 0 0] 
r 7.444053699 _3_ MAC  --- 4 vectorbasedforward 100 [0 1000000 ffff0008 0] [energy 9998.629040 ei 0.051 es 0.000 et 0.800 er 0.520] ------- [10:0 10:255 0 0] 
s 7.499783371 _7_ MAC  --- 7 vectorbasedforward 100 [0 7000000 ffff0008 0] [energy 9997.996264 ei 0.044 es 0.000 et 1.120 er 0.840] ------- [10:0 10:255 0 0] 
s 7.528934219 _1_ MAC  --- 3 vectorbasedforward 100 [0 1000000 ffff0008 0] [energy 9999.212352 ei 0.055 es 0.000 et 0.480 er 0.253] ------- [10:0 10:255 0 0] 
r 7.645780004 _5_ MAC  --- 7 vectorbasedforward 100 [0 7000000 ffff0008 0] [energy 9998.337204 ei 0.050 es 0.000 et 0.960 er 0.652] ------- [10:0 10:255 0 0] 
r 7.645780004 _10_ MAC  --- 7 vectorbasedforward 100 [0 7000000 ffff0008 0] [energy 9997.892274 ei 0.048 es 0.000 et 1.280 er 0.780] ------- [10:0 10:255 0 0] 
r 7.652650476 _0_ MAC  --- 3 vectorbasedforward 100 [0 1000000 ffff0008 0] [energy 9999.582619 ei 0.057 es 0.000 et 0.000 er 0.360] ------- [10:0 10:255 0 0] 
r 7.657982948 _9_ MAC  --- 3 vectorbasedforward 100 [0 1000000 ffff0008 0] [energy 9999.251946 ei 0.054 es 0.000 et 0.000 er 0.694] ------- [10:0 10:255 0 0] 
D 7.658007948 _9_ RTR  SHP 3 vectorbasedforward 100 [0 1000000 ffff0008 0] [energy 9999.251946 ei 0.054 es 0.000 et 0.000 er 0.694] ------- [10:0 10:255 0 0] 
r 7.674930852 _3_ MAC  --- 3 vectorbasedforward 100 [0 1000000 ffff0008 0] [energy 9998.567833 ei 0.052 es 0.000 et 0.800 er 0.580] ------- [10:0 10:255 0 0] 
N -t 8.000000 -n 0 -e 9999.579840
N -t 8.000000 -n 1 -e 9999.048405
N -t 8.000000 -n 2 -e 9999.498560
N -t 8.000000 -n 3 -e 9998.565233
N -t 8.000000 -n 4 -e 9999.010779
N -t 8.000000 -n 5 -e 9998.334370
N -t 8.000000 -n 6 -e 9998.883040
N -t 8.000000 -n 7 -e 9997.830080
N -t 8.000000 -n 8 -e 9998.434705
N -t 8.000000 -n 9 -e 9999.249210
N -t 8.000000 -n 10 -e 9997.889440
s 8.001025000 _10_ MAC  --- 8 vectorbasedforward 100 [0 a000000 ffff0008 0] [energy 9997.889440 ei 0.051 es 0.000 et 1.280 er 0.780] ------- [10:0 10:255 0 0] 
s 8.064066457 _6_ MAC  --- 6 vectorbasedforward 100 [0 6000000 ffff0008 0] [energy 9998.883040 ei 0.057 es 0.000 et 0.640 er 0.420] ------- [10:0 10:255 0 0] 
D 8.132232638 _8_ MAC Error/Collision 8 vectorbasedforward 100 [0 a000000 ffff0008 0] [energy 9998.318242 ei 0.054 es 0.000 et 0.800 er 0.828] ------- [10:0 10:255 0 0] 
r 8.147021633 _7_ MAC  --- 8 vectorbasedforward 100 [0 a000000 ffff0008 0] [energy 9997.769544 ei 0.050 es 0.000 et 1.280 er 0.900] ------- [10:0 10:255 0 0] 
D 8.206959665 _8_ MAC Error/Collision 6 vectorbasedforward 100 [0 6000000 ffff0008 0] [energy 9998.318242 ei 0.054 es 0.000 et 0.800 er 0.828] ------- [10:0 10:255 0 0] 