s 0.003025000 _11_ MAC  --- 0 vectorbasedforward 100 [0 b000000 ffff0008 0] [energy 10000.000000 ei 0.000 es 0.000 et 0.000 er 0.000] ------- [11:0 11:255 0 0] 
s 0.003025000 _10_ MAC  --- 1 vectorbasedforward 300 [0 a000000 ffff0008 0] [energy 10000.000000 ei 0.000 es 0.000 et 0.000 er 0.000] ------- [10:0 10:255 0 0] 
s 0.003025000 _9_ MAC  --- 2 vectorbasedforward 300 [0 9000000 ffff0008 0] [energy 10000.000000 ei 0.000 es 0.000 et 0.000 er 0.000] ------- [9:0 9:255 0 0] 
D 0.121898013 _9_ MAC Error/Collision 0 vectorbasedforward 100 [0 b000000 ffff0008 0] [energy 9999.501948 ei 0.000 es 0.000 et 0.480 er 0.018] ------- [11:0 11:255 0 0] 
D 0.134232638 _8_ MAC Error/Collision 0 vectorbasedforward 100 [0 b000000 ffff0008 0] [energy 9999.806630 ei 0.000 es 0.000 et 0.000 er 0.193] ------- [11:0 11:255 0 0] 
D 0.141524763 _10_ MAC Error/Collision 0 vectorbasedforward 100 [0 b000000 ffff0008 0] [energy 9999.501948 ei 0.000 es 0.000 et 0.480 er 0.018] ------- [11:0 11:255 0 0] 
D 0.149021633 _7_ MAC Error/Collision 0 vectorbasedforward 100 [0 b000000 ffff0008 0] [energy 9999.805661 ei 0.000 es 0.000 et 0.000 er 0.194] ------- [11:0 11:255 0 0] 
D 0.263025000 _7_ MAC Error/Collision 1 vectorbasedforward 300 [0 a000000 ffff0008 0] [energy 9999.805661 ei 0.000 es 0.000 et 0.000 er 0.194] ------- [10:0 10:255 0 0] 
D 0.267062009 _9_ MAC Error/Collision 1 vectorbasedforward 300 [0 a000000 ffff0008 0] [energy 9999.501948 ei 0.000 es 0.000 et 0.480 er 0.018] ------- [10:0 10:255 0 0] 
D 0.267062009 _10_ MAC Error/Collision 2 vectorbasedforward 300 [0 9000000 ffff0008 0] [energy 9999.501948 ei 0.000 es 0.000 et 0.480 er 0.018] ------- [9:0 9:255 0 0] 
D 0.276358333 _8_ MAC Error/Collision 2 vectorbasedforward 300 [0 9000000 ffff0008 0] [energy 9999.806630 ei 0.000 es 0.000 et 0.000 er 0.193] ------- [9:0 9:255 0 0] 
D 0.281898013 _7_ MAC Error/Collision 2 vectorbasedforward 300 [0 9000000 ffff0008 0] [energy 9999.805661 ei 0.000 es 0.000 et 0.000 er 0.194] ------- [9:0 9:255 0 0] 
D 0.281898013 _11_ MAC Error/Collision 2 vectorbasedforward 300 [0 9000000 ffff0008 0] [energy 9999.676101 ei 0.000 es 0.000 et 0.160 er 0.164] ------- [9:0 9:255 0 0] 
D 0.293796821 _8_ MAC Error/Collision 1 vectorbasedforward 300 [0 a000000 ffff0008 0] [energy 9999.806630 ei 0.000 es 0.000 et 0.000 er 0.193] ------- [10:0 10:255 0 0] 
D 0.301524763 _11_ MAC Error/Collision 1 vectorbasedforward 300 [0 a000000 ffff0008 0] [energy 9999.676101 ei 0.000 es 0.000 et 0.160 er 0.164] ------- [10:0 10:255 0 0] 
r 0.309357496 _6_ MAC  --- 1 vectorbasedforward 300 [0 a000000 ffff0008 0] [energy 9999.819445 ei 0.001 es 0.000 et 0.000 er 0.180] ------- [10:0 10:255 0 0] 
N -t 1.000000 -n 0 -e 9999.992000
N -t 1.000000 -n 1 -e 9999.992000
N -t 1.000000 -n 2 -e 9999.992000
N -t 1.000000 -n 3 -e 9999.992000
N -t 1.000000 -n 4 -e 9999.992000
N -t 1.000000 -n 5 -e 9999.992000
N -t 1.000000 -n 6 -e 9999.813920
N -t 1.000000 -n 7 -e 9999.799916
N -t 1.000000 -n 8 -e 9999.800981
N -t 1.000000 -n 9 -e 9999.496085
N -t 1.000000 -n 10 -e 9999.496085
N -t 1.000000 -n 11 -e 9999.670513
s 1.003025000 _11_ MAC  --- 3 vectorbasedforward 100 [0 b000000 ffff0008 0] [energy 9999.670513 ei 0.006 es 0.000 et 0.160 er 0.164] ------- [11:0 11:255 0 0] 
s 1.003025000 _10_ MAC  --- 4 vectorbasedforward 300 [0 a000000 ffff0008 0] [energy 9999.496085 ei 0.006 es 0.000 et 0.480 er 0.018] ------- [10:0 10:255 0 0] 
s 1.003025000 _9_ MAC  --- 5 vectorbasedforward 300 [0 9000000 ffff0008 0] [energy 9999.496085 ei 0.006 es 0.000 et 0.480 er 0.018] ------- [9:0 9:255 0 0] 
D 1.121898013 _9_ MAC Error/Collision 3 vectorbasedforward 100 [0 b000000 ffff0008 0] [energy 9998.998033 ei 0.006 es 0.000 et 0.960 er 0.036] ------- [11:0 11:255 0 0] 
D 1.134232638 _8_ MAC Error/Collision 3 vectorbasedforward 100 [0 b000000 ffff0008 0] [energy 9999.607611 ei 0.006 es 0.000 et 0.000 er 0.386] ------- [11:0 11:255 0 0] 
D 1.141524763 _10_ MAC Error/Collision 3 vectorbasedforward 100 [0 b000000 ffff0008 0] [energy 9998.998033 ei 0.006 es 0.000 et 0.960 er 0.036] ------- [11:0 11:255 0 0] 
D 1.149021633 _7_ MAC Error/Collision 3 vectorbasedforward 100 [0 b000000 ffff0008 0] [energy 9999.605577 ei 0.006 es 0.000 et 0.000 er 0.388] ------- [11:0 11:255 0 0] 
D 1.263025000 _7_ MAC Error/Collision 4 vectorbasedforward 300 [0 a000000 ffff0008 0] [energy 9999.605577 ei 0.006 es 0.000 et 0.000 er 0.388] ------- [10:0 10:255 0 0] 
D 1.267062009 _9_ MAC Error/Collision 4 vectorbasedforward 300 [0 a000000 ffff0008 0] [energy 9998.998033 ei 0.006 es 0.000 et 0.960 er 0.036] ------- [10:0 10:255 0 0] 
D 1.267062009 _10_ MAC Error/Collision 5 vectorbasedforward 300 [0 9000000 ffff0008 0] [energy 9998.998033 ei 0.006 es 0.000 et 0.960 er 0.036] ------- [9:0 9:255 0 0] 
D 1.276358333 _8_ MAC Error/Collision 5 vectorbasedforward 300 [0 9000000 ffff0008 0] [energy 9999.607611 ei 0.006 es 0.000 et 0.000 er 0.386] ------- [9:0 9:255 0 0] 
D 1.281898013 _7_ MAC Error/Collision 5 vectorbasedforward 300 [0 9000000 ffff0008 0] [energy 9999.605577 ei 0.006 es 0.000 et 0.000 er 0.388] ------- [9:0 9:255 0 0] 
D 1.281898013 _11_ MAC Error/Collision 5 vectorbasedforward 300 [0 9000000 ffff0008 0] [energy 9999.346614 ei 0.006 es 0.000 et 0.320 er 0.328] ------- [9:0 9:255 0 0] 
D 1.293796821 _8_ MAC Error/Collision 4 vectorbasedforward 300 [0 a000000 ffff0008 0] [energy 9999.607611 ei 0.006 es 0.000 et 0.000 er 0.386] ------- [10:0 10:255 0 0] 
D 1.301524763 _11_ MAC Error/Collision 4 vectorbasedforward 300 [0 a000000 ffff0008 0] [energy 9999.346614 ei 0.006 es 0.000 et 0.320 er 0.328] ------- [10:0 10:255 0 0] 
r 1.309357496 _6_ MAC  --- 4 vectorbasedforward 300 [0 a000000 ffff0008 0] [energy 9999.633365 ei 0.007 es 0.000 et 0.000 er 0.360] ------- [10:0 10:255 0 0] 
s 1.410514929 _6_ MAC  --- 1 vectorbasedforward 300 [0 6000000 ffff0008 0] [energy 9999.633365 ei 0.007 es 0.000 et 0.000 er 0.360] ------- [10:0 10:255 0 0] 
r 1.711797517 _4_ MAC  --- 1 vectorbasedforward 300 [0 6000000 ffff0008 0] [energy 9999.808226 ei 0.012 es 0.000 et 0.000 er 0.180] ------- [10:0 10:255 0 0] 
r 1.713408137 _8_ MAC  --- 1 vectorbasedforward 300 [0 6000000 ffff0008 0] [energy 9999.426174 ei 0.008 es 0.000 et 0.000 er 0.566] ------- [10:0 10:255 0 0] 
r 1.716847425 _10_ MAC  --- 1 vectorbasedforward 300 [0 6000000 ffff0008 0] [energy 9998.816354 ei 0.008 es 0.000 et 0.960 er 0.216] ------- [10:0 10:255 0 0] 
N -t 2.000000 -n 0 -e 9999.984000
N -t 2.000000 -n 1 -e 9999.984000
N -t 2.000000 -n 2 -e 9999.984000
N -t 2.000000 -n 3 -e 9999.984000
N -t 2.000000 -n 4 -e 9999.805920
N -t 2.000000 -n 5 -e 9999.984000
N -t 2.000000 -n 6 -e 9999.149760
N -t 2.000000 -n 7 -e 9999.599832
N -t 2.000000 -n 8 -e 9999.423881
N -t 2.000000 -n 9 -e 9998.992169
N -t 2.000000 -n 10 -e 9998.814089
N -t 2.000000 -n 11 -e 9999.341026
s 2.003025000 _11_ MAC  --- 6 vectorbasedforward 100 [0 b000000 ffff0008 0] [energy 9999.341026 ei 0.011 es 0.000 et 0.320 er 0.328] ------- [11:0 11:255 0 0] 
s 2.003025000 _10_ MAC  --- 7 vectorbasedforward 300 [0 a000000 ffff0008 0] [energy 9998.814089 ei 0.010 es 0.000 et 0.960 er 0.216] ------- [10:0 10:255 0 0] 
s 2.003025000 _9_ MAC  --- 8 vectorbasedforward 300 [0 9000000 ffff0008 0] [energy 9998.992169 ei 0.012 es 0.000 et 0.960 er 0.036] ------- [9:0 9:255 0 0] 
D 2.121898013 _9_ MAC Error/Collision 6 vectorbasedforward 100 [0 b000000 ffff0008 0] [energy 9998.494117 ei 0.012 es 0.000 et 1.440 er 0.054] ------- [11:0 11:255 0 0] 
D 2.134232638 _8_ MAC Error/Collision 6 vectorbasedforward 100 [0 b000000 ffff0008 0] [energy 9999.230512 ei 0.010 es 0.000 et 0.000 er 0.759] ------- [11:0 11:255 0 0] 
D 2.141524763 _10_ MAC Error/Collision 6 vectorbasedforward 100 [0 b000000 ffff0008 0] [energy 9998.316037 ei 0.010 es 0.000 et 1.440 er 0.234] ------- [11:0 11:255 0 0] 
D 2.149021633 _7_ MAC Error/Collision 6 vectorbasedforward 100 [0 b000000 ffff0008 0] [energy 9999.405493 ei 0.012 es 0.000 et 0.000 er 0.582] ------- [11:0 11:255 0 0] 
D 2.263025000 _7_ MAC Error/Collision 7 vectorbasedforward 300 [0 a000000 ffff0008 0] [energy 9999.405493 ei 0.012 es 0.000 et 0.000 er 0.582] ------- [10:0 10:255 0 0] 
D 2.267062009 _9_ MAC Error/Collision 7 vectorbasedforward 300 [0 a000000 ffff0008 0] [energy 9998.494117 ei 0.012 es 0.000 et 1.440 er 0.054] ------- [10:0 10:255 0 0] 
D 2.267062009 _10_ MAC Error/Collision 8 vectorbasedforward 300 [0 9000000 ffff0008 0] [energy 9998.316037 ei 0.010 es 0.000 et 1.440 er 0.234] ------- [9:0 9:255 0 0] 
D 2.276358333 _8_ MAC Error/Collision 8 vectorbasedforward 300 [0 9000000 ffff0008 0] [energy 9999.230512 ei 0.010 es 0.000 et 0.000 er 0.759] ------- [9:0 9:255 0 0] 
D 2.281898013 _7_ MAC Error/Collision 8 vectorbasedforward 300 [0 9000000 ffff0008 0] [energy 9999.405493 ei 0.012 es 0.000 et 0.000 er 0.582] ------- [9:0 9:255 0 0] 
D 2.281898013 _11_ MAC Error/Collision 8 vectorbasedforward 300 [0 9000000 ffff0008 0] [energy 9999.017127 ei 0.011 es 0.000 et 0.480 er 0.492] ------- [9:0 9:255 0 0] 
D 2.293796821 _8_ MAC Error/Collision 7 vectorbasedforward 300 [0 a000000 ffff0008 0] [energy 9999.230512 ei 0.010 es 0.000 et 0.000 er 0.759] ------- [10:0 10:255 0 0] 
D 2.301524763 _11_ MAC Error/Collision 7 vectorbasedforward 300 [0 a000000 ffff0008 0] [energy 9999.017127 ei 0.011 es 0.000 et 0.480 er 0.492] ------- [10:0 10:255 0 0] 
r 2.309357496 _6_ MAC  --- 7 vectorbasedforward 300 [0 a000000 ffff0008 0] [energy 9998.969205 ei 0.011 es 0.000 et 0.480 er 0.540] ------- [10:0 10:255 0 0] 
s 2.410514929 _6_ MAC  --- 4 vectorbasedforward 300 [0 6000000 ffff0008 0] [energy 9998.969205 ei 0.011 es 0.000 et 0.480 er 0.540] ------- [10:0 10:255 0 0] 
r 2.711797517 _4_ MAC  --- 4 vectorbasedforward 300 [0 6000000 ffff0008 0] [energy 9999.622146 ei 0.018 es 0.000 et 0.000 er 0.360] ------- [10:0 10:255 0 0] 
r 2.713408137 _8_ MAC  --- 4 vectorbasedforward 300 [0 6000000 ffff0008 0] [energy 9999.049075 ei 0.012 es 0.000 et 0.000 er 0.939] ------- [10:0 10:255 0 0] 
r 2.716847425 _10_ MAC  --- 4 vectorbasedforward 300 [0 6000000 ffff0008 0] [energy 9998.134359 ei 0.012 es 0.000 et 1.440 er 0.414] ------- [10:0 10:255 0 0] 
s 2.753789971 _4_ MAC  --- 1 vectorbasedforward 300 [0 4000000 ffff0008 0] [energy 9999.622146 ei 0.018 es 0.000 et 0.000 er 0.360] ------- [10:0 10:255 0 0] 
N -t 3.000000 -n 0 -e 9999.976000
N -t 3.000000 -n 1 -e 9999.976000
N -t 3.000000 -n 2 -e 9999.797555
N -t 3.000000 -n 3 -e 9999.976000
N -t 3.000000 -n 4 -e 9999.141760
N -t 3.000000 -n 5 -e 9999.976000
N -t 3.000000 -n 6 -e 9998.307079
N -t 3.000000 -n 7 -e 9999.399749
N -t 3.000000 -n 8 -e 9999.046782
N -t 3.000000 -n 9 -e 9998.488254
N -t 3.000000 -n 10 -e 9998.132094
N -t 3.000000 -n 11 -e 9999.011540
s 3.003025000 _11_ MAC  --- 9 vectorbasedforward 100 [0 b000000 ffff0008 0] [energy 9999.011540 ei 0.017 es 0.000 et 0.480 er 0.492] ------- [11:0 11:255 0 0] 
s 3.003025000 _10_ MAC  --- 10 vectorbasedforward 300 [0 a000000 ffff0008 0] [energy 9998.132094 ei 0.014 es 0.000 et 1.440 er 0.414] ------- [10:0 10:255 0 0] 
s 3.003025000 _9_ MAC  --- 11 vectorbasedforward 300 [0 9000000 ffff0008 0] [energy 9998.488254 ei 0.018 es 0.000 et 1.440 er 0.054] ------- [9:0 9:255 0 0] 
r 3.045644468 _2_ MAC  --- 1 vectorbasedforward 300 [0 4000000 ffff0008 0] [energy 9999.797555 ei 0.022 es 0.000 et 0.000 er 0.180] ------- [10:0 10:255 0 0] 
r 3.055072559 _6_ MAC  --- 1 vectorbasedforward 300 [0 4000000 ffff0008 0] [energy 9998.307079 ei 0.013 es 0.000 et 0.960 er 0.720] ------- [10:0 10:255 0 0] 
D 3.121898013 _9_ MAC Error/Collision 9 vectorbasedforward 100 [0 b000000 ffff0008 0] [energy 9997.990202 ei 0.018 es 0.000 et 1.920 er 0.072] ------- [11:0 11:255 0 0] 
D 3.134232638 _8_ MAC Error/Collision 9 vectorbasedforward 100 [0 b000000 ffff0008 0] [energy 9998.853412 ei 0.014 es 0.000 et 0.000 er 1.132] ------- [11:0 11:255 0 0] 
D 3.141524763 _10_ MAC Error/Collision 9 vectorbasedforward 100 [0 b000000 ffff0008 0] [energy 9997.634042 ei 0.014 es 0.000 et 1.920 er 0.432] ------- [11:0 11:255 0 0] 
D 3.149021633 _7_ MAC Error/Collision 9 vectorbasedforward 100 [0 b000000 ffff0008 0] [energy 9999.205410 ei 0.018 es 0.000 et 0.000 er 0.777] ------- [11:0 11:255 0 0] 
D 3.263025000 _7_ MAC Error/Collision 10 vectorbasedforward 300 [0 a000000 ffff0008 0] [energy 9999.205410 ei 0.018 es 0.000 et 0.000 er 0.777] ------- [10:0 10:255 0 0] 
D 3.267062009 _9_ MAC Error/Collision 10 vectorbasedforward 300 [0 a000000 ffff0008 0] [energy 9997.990202 ei 0.018 es 0.000 et 1.920 er 0.072] ------- [10:0 10:255 0 0] 
D 3.267062009 _10_ MAC Error/Collision 11 vectorbasedforward 300 [0 9000000 ffff0008 0] [energy 9997.634042 ei 0.014 es 0.000 et 1.920 er 0.432] ------- [9:0 9:255 0 0] 
D 3.276358333 _8_ MAC Error/Collision 11 vectorbasedforward 300 [0 9000000 ffff0008 0] [energy 9998.853412 ei 0.014 es 0.000 et 0.000 er 1.132] ------- [9:0 9:255 0 0] 
D 3.281898013 _7_ MAC Error/Collision 11 vectorbasedforward 300 [0 9000000 ffff0008 0] [energy 9999.205410 ei 0.018 es 0.000 et 0.000 er 0.777] ------- [9:0 9:255 0 0] 
D 3.281898013 _11_ MAC Error/Collision 11 vectorbasedforward 300 [0 9000000 ffff0008 0] [energy 9998.687641 ei 0.017 es 0.000 et 0.640 er 0.655] ------- [9:0 9:255 0 0] 
D 3.293796821 _8_ MAC Error/Collision 10 vectorbasedforward 300 [0 a000000 ffff0008 0] [energy 9998.853412 ei 0.014 es 0.000 et 0.000 er 1.132] ------- [10:0 10:255 0 0] 
D 3.301524763 _11_ MAC Error/Collision 10 vectorbasedforward 300 [0 a000000 ffff0008 0] [energy 9998.687641 ei 0.017 es 0.000 et 0.640 er 0.655] ------- [10:0 10:255 0 0] 
r 3.309357496 _6_ MAC  --- 10 vectorbasedforward 300 [0 a000000 ffff0008 0] [energy 9998.126965 ei 0.013 es 0.000 et 0.960 er 0.900] ------- [10:0 10:255 0 0] 
s 3.410514929 _6_ MAC  --- 7 vectorbasedforward 300 [0 6000000 ffff0008 0] [energy 9998.126965 ei 0.013 es 0.000 et 0.960 er 0.900] ------- [10:0 10:255 0 0] 
D 3.691243723 _4_ MAC Stucked 4 vectorbasedforward 300 [0 4000000 ffff0008 0] [energy 9998.957986 ei 0.022 es 0.000 et 0.480 er 0.540] ------- [10:0 10:255 0 0] 
r 3.711797517 _4_ MAC  --- 7 vectorbasedforward 300 [0 6000000 ffff0008 0] [energy 9998.957986 ei 0.022 es 0.000 et 0.480 er 0.540] ------- [10:0 10:255 0 0] 
r 3.713408137 _8_ MAC  --- 7 vectorbasedforward 300 [0 6000000 ffff0008 0] [energy 9998.671975 ei 0.016 es 0.000 et 0.000 er 1.312] ------- [10:0 10:255 0 0] 
r 3.716847425 _10_ MAC  --- 7 vectorbasedforward 300 [0 6000000 ffff0008 0] [energy 9997.452363 ei 0.016 es 0.000 et 1.920 er 0.612] ------- [10:0 10:255 0 0] 
N -t 4.000000 -n 0 -e 9999.968000
N -t 4.000000 -n 1 -e 9999.968000
N -t 4.000000 -n 2 -e 9999.789920
N -t 4.000000 -n 3 -e 9999.968000
N -t 4.000000 -n 4 -e 9998.955680
N -t 4.000000 -n 5 -e 9999.968000
N -t 4.000000 -n 6 -e 9997.643360
N -t 4.000000 -n 7 -e 9999.199665
N -t 4.000000 -n 8 -e 9998.669683
N -t 4.000000 -n 9 -e 9997.984338
N -t 4.000000 -n 10 -e 9997.450098
N -t 4.000000 -n 11 -e 9998.682053
s 4.003025000 _11_ MAC  --- 12 vectorbasedforward 100 [0 b000000 ffff0008 0] [energy 9998.682053 ei 0.022 es 0.000 et 0.640 er 0.655] ------- [11:0 11:255 0 0] 
s 4.003025000 _10_ MAC  --- 13 vectorbasedforward 300 [0 a000000 ffff0008 0] [energy 9997.450098 ei 0.018 es 0.000 et 1.920 er 0.612] ------- [10:0 10:255 0 0] 
s 4.003025000 _9_ MAC  --- 14 vectorbasedforward 300 [0 9000000 ffff0008 0] [energy 9997.984338 ei 0.024 es 0.000 et 1.920 er 0.072] ------- [9:0 9:255 0 0] 
s 4.020904058 _2_ MAC  --- 1 vectorbasedforward 300 [0 2000000 ffff0008 0] [energy 9999.789920 ei 0.030 es 0.000 et 0.000 er 0.180] ------- [10:0 10:255 0 0] 
D 4.121898013 _9_ MAC Error/Collision 12 vectorbasedforward 100 [0 b000000 ffff0008 0] [energy 9997.486286 ei 0.024 es 0.000 et 2.400 er 0.090] ------- [11:0 11:255 0 0] 
D 4.134232638 _8_ MAC Error/Collision 12 vectorbasedforward 100 [0 b000000 ffff0008 0] [energy 9998.476313 ei 0.018 es 0.000 et 0.000 er 1.505] ------- [11:0 11:255 0 0] 
D 4.141524763 _10_ MAC Error/Collision 12 vectorbasedforward 100 [0 b000000 ffff0008 0] [energy 9996.952046 ei 0.018 es 0.000 et 2.400 er 0.630] ------- [11:0 11:255 0 0] 
D 4.149021633 _7_ MAC Error/Collision 12 vectorbasedforward 100 [0 b000000 ffff0008 0] [energy 9999.005326 ei 0.024 es 0.000 et 0.000 er 0.971] ------- [11:0 11:255 0 0] 
D 4.263025000 _7_ MAC Error/Collision 13 vectorbasedforward 300 [0 a000000 ffff0008 0] [energy 9999.005326 ei 0.024 es 0.000 et 0.000 er 0.971] ------- [10:0 10:255 0 0] 
D 4.267062009 _9_ MAC Error/Collision 13 vectorbasedforward 300 [0 a000000 ffff0008 0] [energy 9997.486286 ei 0.024 es 0.000 et 2.400 er 0.090] ------- [10:0 10:255 0 0] 
D 4.267062009 _10_ MAC Error/Collision 14 vectorbasedforward 300 [0 9000000 ffff0008 0] [energy 9996.952046 ei 0.018 es 0.000 et 2.400 er 0.630] ------- [9:0 9:255 0 0] 
D 4.276358333 _8_ MAC Error/Collision 14 vectorbasedforward 300 [0 9000000 ffff0008 0] [energy 9998.476313 ei 0.018 es 0.000 et 0.000 er 1.505] ------- [9:0 9:255 0 0] 
D 4.281898013 _7_ MAC Error/Collision 14 vectorbasedforward 300 [0 9000000 ffff0008 0] [energy 9999.005326 ei 0.024 es 0.000 et 0.000 er 0.971] ------- [9:0 9:255 0 0] 
D 4.281898013 _11_ MAC Error/Collision 14 vectorbasedforward 300 [0 9000000 ffff0008 0] [energy 9998.358154 ei 0.022 es 0.000 et 0.800 er 0.819] ------- [9:0 9:255 0 0] 
D 4.293796821 _8_ MAC Error/Collision 13 vectorbasedforward 300 [0 a000000 ffff0008 0] [energy 9998.476313 ei 0.018 es 0.000 et 0.000 er 1.505] ------- [10:0 10:255 0 0] 
D 4.301524763 _11_ MAC Error/Collision 13 vectorbasedforward 300 [0 a000000 ffff0008 0] [energy 9998.358154 ei 0.022 es 0.000 et 0.800 er 0.819] ------- [10:0 10:255 0 0] 
r 4.309357496 _6_ MAC  --- 13 vectorbasedforward 300 [0 a000000 ffff0008 0] [energy 9997.462805 ei 0.017 es 0.000 et 1.440 er 1.080] ------- [10:0 10:255 0 0] 
r 4.312758556 _4_ MAC  --- 1 vectorbasedforward 300 [0 2000000 ffff0008 0] [energy 9998.775098 ei 0.025 es 0.000 et 0.480 er 0.720] ------- [10:0 10:255 0 0] 
r 4.318639085 _0_ MAC  --- 1 vectorbasedforward 300 [0 2000000 ffff0008 0] [energy 9999.787371 ei 0.033 es 0.000 et 0.000 er 0.180] ------- [10:0 10:255 0 0] 
r 4.327570725 _1_ MAC  --- 1 vectorbasedforward 300 [0 2000000 ffff0008 0] [energy 9999.787299 ei 0.033 es 0.000 et 0.000 er 0.180] ------- [10:0 10:255 0 0] 
s 4.410514929 _6_ MAC  --- 10 vectorbasedforward 300 [0 6000000 ffff0008 0] [energy 9997.462805 ei 0.017 es 0.000 et 1.440 er 1.080] ------- [10:0 10:255 0 0] 
s 4.516806213 _1_ MAC  --- 1 vectorbasedforward 300 [0 1000000 ffff0008 0] [energy 9999.787299 ei 0.033 es 0.000 et 0.000 er 0.180] ------- [10:0 10:255 0 0] 
r 4.711797517 _4_ MAC  --- 10 vectorbasedforward 300 [0 6000000 ffff0008 0] [energy 9998.593826 ei 0.026 es 0.000 et 0.480 er 0.900] ------- [10:0 10:255 0 0] 
r 4.713408137 _8_ MAC  --- 10 vectorbasedforward 300 [0 6000000 ffff0008 0] [energy 9998.294876 ei 0.020 es 0.000 et 0.000 er 1.685] ------- [10:0 10:255 0 0] 
r 4.716847425 _10_ MAC  --- 10 vectorbasedforward 300 [0 6000000 ffff0008 0] [energy 9996.770368 ei 0.019 es 0.000 et 2.400 er 0.810] ------- [10:0 10:255 0 0] 
D 4.762551293 _4_ MAC Stucked 7 vectorbasedforward 300 [0 4000000 ffff0008 0] [energy 9998.593826 ei 0.026 es 0.000 et 0.480 er 0.900] ------- [10:0 10:255 0 0] 
r 4.803946665 _3_ MAC  --- 1 vectorbasedforward 300 [0 1000000 ffff0008 0] [energy 9999.783488 ei 0.037 es 0.000 et 0.000 er 0.180] ------- [10:0 10:255 0 0] 
r 4.814541240 _0_ MAC  --- 1 vectorbasedforward 300 [0 1000000 ffff0008 0] [energy 9999.605324 ei 0.035 es 0.000 et 0.000 er 0.360] ------- [10:0 10:255 0 0] 
r 4.823472880 _2_ MAC  --- 1 vectorbasedforward 300 [0 1000000 ffff0008 0] [energy 9999.127172 ei 0.033 es 0.000 et 0.480 er 0.360] ------- [10:0 10:255 0 0] 
N -t 5.000000 -n 0 -e 9999.603840
N -t 5.000000 -n 1 -e 9999.303840
N -t 5.000000 -n 2 -e 9999.125760
N -t 5.000000 -n 3 -e 9999.781920
N -t 5.000000 -n 4 -e 9998.591520
N -t 5.000000 -n 5 -e 9999.960000
N -t 5.000000 -n 6 -e 9996.979200
N -t 5.000000 -n 7 -e 9998.999581
N -t 5.000000 -n 8 -e 9998.292583
N -t 5.000000 -n 9 -e 9997.480423
N -t 5.000000 -n 10 -e 9996.768103
N -t 5.000000 -n 11 -e 9998.352566
s 5.003025000 _11_ MAC  --- 15 vectorbasedforward 100 [0 b000000 ffff0008 0] [energy 9998.352566 ei 0.028 es 0.000 et 0.800 er 0.819] ------- [11:0 11:255 0 0] 
s 5.003025000 _10_ MAC  --- 16 vectorbasedforward 300 [0 a000000 ffff0008 0] [energy 9996.768103 ei 0.022 es 0.000 et 2.400 er 0.810] ------- [10:0 10:255 0 0] 
s 5.003025000 _9_ MAC  --- 17 vectorbasedforward 300 [0 9000000 ffff0008 0] [energy 9997.480423 ei 0.029 es 0.000 et 2.400 er 0.090] ------- [9:0 9:255 0 0] 
D 5.121898013 _9_ MAC Error/Collision 15 vectorbasedforward 100 [0 b000000 ffff0008 0] [energy 9996.982371 ei 0.029 es 0.000 et 2.880 er 0.108] ------- [11:0 11:255 0 0] 
D 5.134232638 _8_ MAC Error/Collision 15 vectorbasedforward 100 [0 b000000 ffff0008 0] [energy 9998.099213 ei 0.022 es 0.000 et 0.000 er 1.878] ------- [11:0 11:255 0 0] 
D 5.141524763 _10_ MAC Error/Collision 15 vectorbasedforward 100 [0 b000000 ffff0008 0] [energy 9996.270051 ei 0.022 es 0.000 et 2.880 er 0.828] ------- [11:0 11:255 0 0] 
D 5.149021633 _7_ MAC Error/Collision 15 vectorbasedforward 100 [0 b000000 ffff0008 0] [energy 9998.805242 ei 0.030 es 0.000 et 0.000 er 1.165] ------- [11:0 11:255 0 0] 
D 5.263025000 _7_ MAC Error/Collision 16 vectorbasedforward 300 [0 a000000 ffff0008 0] [energy 9998.805242 ei 0.030 es 0.000 et 0.000 er 1.165] ------- [10:0 10:255 0 0] 
D 5.267062009 _9_ MAC Error/Collision 16 vectorbasedforward 300 [0 a000000 ffff0008 0] [energy 9996.982371 ei 0.029 es 0.000 et 2.880 er 0.108] ------- [10:0 10:255 0 0] 
D 5.267062009 _10_ MAC Error/Collision 17 vectorbasedforward 300 [0 9000000 ffff0008 0] [energy 9996.270051 ei 0.022 es 0.000 et 2.880 er 0.828] ------- [9:0 9:255 0 0] 
D 5.276358333 _8_ MAC Error/Collision 17 vectorbasedforward 300 [0 9000000 ffff0008 0] [energy 9998.099213 ei 0.022 es 0.000 et 0.000 er 1.878] ------- [9:0 9:255 0 0] 
D 5.281898013 _7_ MAC Error/Collision 17 vectorbasedforward 300 [0 9000000 ffff0008 0] [energy 9998.805242 ei 0.030 es 0.000 et 0.000 er 1.165] ------- [9:0 9:255 0 0] 
D 5.281898013 _11_ MAC Error/Collision 17 vectorbasedforward 300 [0 9000000 ffff0008 0] [energy 9998.028667 ei 0.028 es 0.000 et 0.960 er 0.983] ------- [9:0 9:255 0 0] 
D 5.293796821 _8_ MAC Error/Collision 16 vectorbasedforward 300 [0 a000000 ffff0008 0] [energy 9998.099213 ei 0.022 es 0.000 et 0.000 er 1.878] ------- [10:0 10:255 0 0] 
D 5.301524763 _11_ MAC Error/Collision 16 vectorbasedforward 300 [0 a000000 ffff0008 0] [energy 9998.028667 ei 0.028 es 0.000 et 0.960 er 0.983] ------- [10:0 10:255 0 0] 
r 5.309357496 _6_ MAC  --- 16 vectorbasedforward 300 [0 a000000 ffff0008 0] [energy 9996.798645 ei 0.021 es 0.000 et 1.920 er 1.260] ------- [10:0 10:255 0 0] 
s 5.410514929 _6_ MAC  --- 13 vectorbasedforward 300 [0 6000000 ffff0008 0] [energy 9996.798645 ei 0.021 es 0.000 et 1.920 er 1.260] ------- [10:0 10:255 0 0] 
r 5.711797517 _4_ MAC  --- 13 vectorbasedforward 300 [0 6000000 ffff0008 0] [energy 9998.407746 ei 0.032 es 0.000 et 0.480 er 1.080] ------- [10:0 10:255 0 0] 
r 5.713408137 _8_ MAC  --- 13 vectorbasedforward 300 [0 6000000 ffff0008 0] [energy 9997.917777 ei 0.024 es 0.000 et 0.000 er 2.058] ------- [10:0 10:255 0 0] 
r 5.716847425 _10_ MAC  --- 13 vectorbasedforward 300 [0 6000000 ffff0008 0] [energy 9996.088372 ei 0.023 es 0.000 et 2.880 er 1.008] ------- [10:0 10:255 0 0] 
D 5.721253208 _4_ MAC Stucked 10 vectorbasedforward 300 [0 4000000 ffff0008 0] [energy 9998.407746 ei 0.032 es 0.000 et 0.480 er 1.080] ------- [10:0 10:255 0 0] 
s 5.968467788 _3_ MAC  --- 1 vectorbasedforward 300 [0 3000000 ffff0008 0] [energy 9999.781920 ei 0.038 es 0.000 et 0.000 er 0.180] ------- [10:0 10:255 0 0] 
N -t 6.000000 -n 0 -e 9999.595840
N -t 6.000000 -n 1 -e 9999.295840
N -t 6.000000 -n 2 -e 9999.117760
N -t 6.000000 -n 3 -e 9999.294172
N -t 6.000000 -n 4 -e 9998.405440
N -t 6.000000 -n 5 -e 9999.952000
N -t 6.000000 -n 6 -e 9996.315040
N -t 6.000000 -n 7 -e 9998.799497
N -t 6.000000 -n 8 -e 9997.915484
N -t 6.000000 -n 9 -e 9996.976507
N -t 6.000000 -n 10 -e 9996.086107
N -t 6.000000 -n 11 -e 9998.023079
s 6.003025000 _11_ MAC  --- 18 vectorbasedforward 100 [0 b000000 ffff0008 0] [energy 9998.023079 ei 0.034 es 0.000 et 0.960 er 0.983] ------- [11:0 11:255 0 0] 
s 6.003025000 _10_ MAC  --- 19 vectorbasedforward 300 [0 a000000 ffff0008 0] [energy 9996.086107 ei 0.026 es 0.000 et 2.880 er 1.008] ------- [10:0 10:255 0 0] 
s 6.003025000 _9_ MAC  --- 20 vectorbasedforward 300 [0 9000000 ffff0008 0] [energy 9996.976507 ei 0.035 es 0.000 et 2.880 er 0.108] ------- [9:0 9:255 0 0] 
D 6.121898013 _9_ MAC Error/Collision 18 vectorbasedforward 100 [0 b000000 ffff0008 0] [energy 9996.478455 ei 0.035 es 0.000 et 3.360 er 0.126] ------- [11:0 11:255 0 0] 
D 6.134232638 _8_ MAC Error/Collision 18 vectorbasedforward 100 [0 b000000 ffff0008 0] [energy 9997.722114 ei 0.026 es 0.000 et 0.000 er 2.252] ------- [11:0 11:255 0 0] 
D 6.141524763 _10_ MAC Error/Collision 18 vectorbasedforward 100 [0 b000000 ffff0008 0] [energy 9995.588055 ei 0.026 es 0.000 et 3.360 er 1.026] ------- [11:0 11:255 0 0] 
D 6.149021633 _7_ MAC Error/Collision 18 vectorbasedforward 100 [0 b000000 ffff0008 0] [energy 9998.605158 ei 0.036 es 0.000 et 0.000 er 1.359] ------- [11:0 11:255 0 0] 
r 6.255608240 _1_ MAC  --- 1 vectorbasedforward 300 [0 3000000 ffff0008 0] [energy 9999.115715 ei 0.044 es 0.000 et 0.480 er 0.360] ------- [10:0 10:255 0 0] 
r 6.255608240 _5_ MAC  --- 1 vectorbasedforward 300 [0 3000000 ffff0008 0] [energy 9999.771875 ei 0.048 es 0.000 et 0.000 er 0.180] ------- [10:0 10:255 0 0] 
D 6.263025000 _7_ MAC Error/Collision 19 vectorbasedforward 300 [0 a000000 ffff0008 0] [energy 9998.605158 ei 0.036 es 0.000 et 0.000 er 1.359] ------- [10:0 10:255 0 0] 
D 6.267062009 _9_ MAC Error/Collision 19 vectorbasedforward 300 [0 a000000 ffff0008 0] [energy 9996.478455 ei 0.035 es 0.000 et 3.360 er 0.126] ------- [10:0 10:255 0 0] 
D 6.267062009 _10_ MAC Error/Collision 20 vectorbasedforward 300 [0 9000000 ffff0008 0] [energy 9995.588055 ei 0.026 es 0.000 et 3.360 er 1.026] ------- [9:0 9:255 0 0] 
D 6.276358333 _8_ MAC Error/Collision 20 vectorbasedforward 300 [0 9000000 ffff0008 0] [energy 9997.722114 ei 0.026 es 0.000 et 0.000 er 2.252] ------- [9:0 9:255 0 0] 
D 6.281898013 _7_ MAC Error/Collision 20 vectorbasedforward 300 [0 9000000 ffff0008 0] [energy 9998.605158 ei 0.036 es 0.000 et 0.000 er 1.359] ------- [9:0 9:255 0 0] 
D 6.281898013 _11_ MAC Error/Collision 20 vectorbasedforward 300 [0 9000000 ffff0008 0] [energy 9997.699180 ei 0.034 es 0.000 et 1.120 er 1.147] ------- [9:0 9:255 0 0] 
D 6.293796821 _8_ MAC Error/Collision 19 vectorbasedforward 300 [0 a000000 ffff0008 0] [energy 9997.722114 ei 0.026 es 0.000 et 0.000 er 2.252] ------- [10:0 10:255 0 0] 
D 6.301524763 _11_ MAC Error/Collision 19 vectorbasedforward 300 [0 a000000 ffff0008 0] [energy 9997.699180 ei 0.034 es 0.000 et 1.120 er 1.147] ------- [10:0 10:255 0 0] 
r 6.309357496 _6_ MAC  --- 19 vectorbasedforward 300 [0 a000000 ffff0008 0] [energy 9996.134485 ei 0.026 es 0.000 et 2.400 er 1.440] ------- [10:0 10:255 0 0] 
s 6.410514929 _6_ MAC  --- 16 vectorbasedforward 300 [0 6000000 ffff0008 0] [energy 9996.134485 ei 0.026 es 0.000 et 2.400 er 1.440] ------- [10:0 10:255 0 0] 
r 6.711797517 _4_ MAC  --- 16 vectorbasedforward 300 [0 6000000 ffff0008 0] [energy 9998.221666 ei 0.038 es 0.000 et 0.480 er 1.260] ------- [10:0 10:255 0 0] 
r 6.713408137 _8_ MAC  --- 16 vectorbasedforward 300 [0 6000000 ffff0008 0] [energy 9997.540677 ei 0.028 es 0.000 et 0.000 er 2.432] ------- [10:0 10:255 0 0] 
r 6.716847425 _10_ MAC  --- 16 vectorbasedforward 300 [0 6000000 ffff0008 0] [energy 9995.406377 ei 0.027 es 0.000 et 3.360 er 1.206] ------- [10:0 10:255 0 0] 
D 6.721920463 _4_ MAC Stucked 13 vectorbasedforward 300 [0 4000000 ffff0008 0] [energy 9998.221666 ei 0.038 es 0.000 et 0.480 er 1.260] ------- [10:0 10:255 0 0] 
N -t 7.000000 -n 0 -e 9999.587840
N -t 7.000000 -n 1 -e 9999.109760
N -t 7.000000 -n 2 -e 9999.109760
N -t 7.000000 -n 3 -e 9999.287840
N -t 7.000000 -n 4 -e 9998.219360
N -t 7.000000 -n 5 -e 9999.765920
N -t 7.000000 -n 6 -e 9995.650880
N -t 7.000000 -n 7 -e 9998.599414
N -t 7.000000 -n 8 -e 9997.538384
N -t 7.000000 -n 9 -e 9996.472592
N -t 7.000000 -n 10 -e 9995.404112
N -t 7.000000 -n 11 -e 9997.693592
s 7.003025000 _11_ MAC  --- 21 vectorbasedforward 100 [0 b000000 ffff0008 0] [energy 9997.693592 ei 0.039 es 0.000 et 1.120 er 1.147] ------- [11:0 11:255 0 0] 
s 7.003025000 _10_ MAC  --- 22 vectorbasedforward 300 [0 a000000 ffff0008 0] [energy 9995.404112 ei 0.030 es 0.000 et 3.360 er 1.206] ------- [10:0 10:255 0 0] 
s 7.003025000 _9_ MAC  --- 23 vectorbasedforward 300 [0 9000000 ffff0008 0] [energy 9996.472592 ei 0.041 es 0.000 et 3.360 er 0.126] ------- [9:0 9:255 0 0] 
D 7.121898013 _9_ MAC Error/Collision 21 vectorbasedforward 100 [0 b000000 ffff0008 0] [energy 9995.974540 ei 0.041 es 0.000 et 3.840 er 0.144] ------- [11:0 11:255 0 0] 
D 7.134232638 _8_ MAC Error/Collision 21 vectorbasedforward 100 [0 b000000 ffff0008 0] [energy 9997.345015 ei 0.030 es 0.000 et 0.000 er 2.625] ------- [11:0 11:255 0 0] 
D 7.141524763 _10_ MAC Error/Collision 21 vectorbasedforward 100 [0 b000000 ffff0008 0] [energy 9994.906060 ei 0.030 es 0.000 et 3.840 er 1.224] ------- [11:0 11:255 0 0] 
D 7.149021633 _7_ MAC Error/Collision 21 vectorbasedforward 100 [0 b000000 ffff0008 0] [energy 9998.405075 ei 0.042 es 0.000 et 0.000 er 1.553] ------- [11:0 11:255 0 0] 
D 7.263025000 _7_ MAC Error/Collision 22 vectorbasedforward 300 [0 a000000 ffff0008 0] [energy 9998.405075 ei 0.042 es 0.000 et 0.000 er 1.553] ------- [10:0 10:255 0 0] 