r -t 0.001000000 -Hs 9 -Hd -2 -Ni 9 -Nx 300.00 -Ny -300.00 -Nz -250.00 -Ne 10000.000000 -Nl RTR -Nw --- -Ma 0 -Md 0 -Ms 0 -Mt 0 -Is 9.0 -Id 9.255 -It vectorbasedforward -Il 100 -If 0 -Ii 0 -Iv 0 
s -t 0.001025000 -Hs 9 -Hd -1 -Ni 9 -Nx 300.00 -Ny -300.00 -Nz -250.00 -Ne 10000.000000 -Nl MAC -Nw --- -Ma 0 -Md 9000000 -Ms ffff0008 -Mt 0 -Is 9.0 -Id 9.255 -It vectorbasedforward -Il 100 -If 0 -Ii 0 -Iv 0 
r -t 0.132232638 -Hs 8 -Hd -1 -Ni 8 -Nx 350.00 -Ny -250.00 -Nz -220.00 -Ne 9999.939582 -Nl MAC -Nw --- -Ma 0 -Md 9000000 -Ms ffff0008 -Mt 0 -Is 9.0 -Id 9.255 -It vectorbasedforward -Il 100 -If 0 -Ii 0 -Iv 0 
r -t 0.132257638 -Hs 8 -Hd -1 -Ni 8 -Nx 350.00 -Ny -250.00 -Nz -220.00 -Ne 9999.939582 -Nl RTR -Nw --- -Ma 0 -Md 9000000 -Ms ffff0008 -Mt 0 -Is 9.0 -Id 9.255 -It vectorbasedforward -Il 100 -If 0 -Ii 0 -Iv 0 
N -t 1.000000 -n 0 -e 9999.992000
N -t 1.000000 -n 1 -e 9999.992000
N -t 1.000000 -n 2 -e 9999.992000
N -t 1.000000 -n 3 -e 9999.992000
N -t 1.000000 -n 4 -e 9999.992000
N -t 1.000000 -n 5 -e 9999.992000
N -t 1.000000 -n 6 -e 9999.992000
N -t 1.000000 -n 7 -e 9999.992000
N -t 1.000000 -n 8 -e 9999.932640
N -t 1.000000 -n 9 -e 9999.832640
r -t 1.001000000 -Hs 9 -Hd -2 -Ni 9 -Nx 300.00 -Ny -300.00 -Nz -250.00 -Ne 9999.832640 -Nl RTR -Nw --- -Ma 0 -Md 0 -Ms 0 -Mt 0 -Is 9.0 -Id 9.255 -It vectorbasedforward -Il 100 -If 0 -Ii 1 -Iv 0 
s -t 1.001025000 -Hs 9 -Hd -1 -Ni 9 -Nx 300.00 -Ny -300.00 -Nz -250.00 -Ne 9999.832640 -Nl MAC -Nw --- -Ma 0 -Md 9000000 -Ms ffff0008 -Mt 0 -Is 9.0 -Id 9.255 -It vectorbasedforward -Il 100 -If 0 -Ii 1 -Iv 0 
r -t 1.132232638 -Hs 8 -Hd -1 -Ni 8 -Nx 350.00 -Ny -250.00 -Nz -220.00 -Ne 9999.872222 -Nl MAC -Nw --- -Ma 0 -Md 9000000 -Ms ffff0008 -Mt 0 -Is 9.0 -Id 9.255 -It vectorbasedforward -Il 100 -If 0 -Ii 1 -Iv 0 
r -t 1.132257638 -Hs 8 -Hd -1 -Ni 8 -Nx 350.00 -Ny -250.00 -Nz -220.00 -Ne 9999.872222 -Nl RTR -Nw --- -Ma 0 -Md 9000000 -Ms ffff0008 -Mt 0 -Is 9.0 -Id 9.255 -It vectorbasedforward -Il 100 -If 0 -Ii 1 -Iv 0 
s -t 1.181292396 -Hs 8 -Hd -1 -Ni 8 -Nx 350.00 -Ny -250.00 -Nz -220.00 -Ne 9999.872222 -Nl MAC -Nw --- -Ma 0 -Md 8000000 -Ms ffff0008 -Mt 0 -Is 9.0 -Id 9.255 -It vectorbasedforward -Il 100 -If 0 -Ii 0 -Iv 0 
r -t 1.181317396 -Hs 1 -Hd -1 -Ni 1 -Nx 250.00 -Ny -30.00 -Nz -30.00 -Ne 9999.992000 -Nl RTR -Nw --- -Ma 0 -Md 8000000 -Ms ffff0008 -Mt 0 -Is 9.0 -Id 9.255 -It vectorbasedforward -Il 100 -If 0 -Ii 0 -Iv 0 
r -t 1.306013756 -Hs 6 -Hd -1 -Ni 6 -Nx 350.00 -Ny -190.00 -Nz -190.00 -Ne 9999.930192 -Nl MAC -Nw --- -Ma 0 -Md 8000000 -Ms ffff0008 -Mt 0 -Is 9.0 -Id 9.255 -It vectorbasedforward -Il 100 -If 0 -Ii 0 -Iv 0 
r -t 1.306038756 -Hs 6 -Hd -1 -Ni 6 -Nx 350.00 -Ny -190.00 -Nz -190.00 -Ne 9999.930192 -Nl RTR -Nw --- -Ma 0 -Md 8000000 -Ms ffff0008 -Mt 0 -Is 9.0 -Id 9.255 -It vectorbasedforward -Il 100 -If 0 -Ii 0 -Iv 0 
r -t 1.312500035 -Hs 9 -Hd -1 -Ni 9 -Nx 300.00 -Ny -300.00 -Nz -250.00 -Ne 9999.611420 -Nl MAC -Nw --- -Ma 0 -Md 8000000 -Ms ffff0008 -Mt 0 -Is 9.0 -Id 9.255 -It vectorbasedforward -Il 100 -If 0 -Ii 0 -Iv 0 
r -t 1.312525035 -Hs 9 -Hd -1 -Ni 9 -Nx 300.00 -Ny -300.00 -Nz -250.00 -Ne 9999.611420 -Nl RTR -Nw --- -Ma 0 -Md 8000000 -Ms ffff0008 -Mt 0 -Is 9.0 -Id 9.255 -It vectorbasedforward -Il 100 -If 0 -Ii 0 -Iv 0 
r -t 1.321292396 -Hs 7 -Hd -1 -Ni 7 -Nx 270.00 -Ny -210.00 -Nz -210.00 -Ne 9999.930070 -Nl MAC -Nw --- -Ma 0 -Md 8000000 -Ms ffff0008 -Mt 0 -Is 9.0 -Id 9.255 -It vectorbasedforward -Il 100 -If 0 -Ii 0 -Iv 0 
r -t 1.321317396 -Hs 7 -Hd -1 -Ni 7 -Nx 270.00 -Ny -210.00 -Nz -210.00 -Ne 9999.930070 -Nl RTR -Nw --- -Ma 0 -Md 8000000 -Ms ffff0008 -Mt 0 -Is 9.0 -Id 9.255 -It vectorbasedforward -Il 100 -If 0 -Ii 0 -Iv 0 
s -t 1.799630076 -Hs 7 -Hd -1 -Ni 7 -Nx 270.00 -Ny -210.00 -Nz -210.00 -Ne 9999.930070 -Nl MAC -Nw --- -Ma 0 -Md 7000000 -Ms ffff0008 -Mt 0 -Is 9.0 -Id 9.255 -It vectorbasedforward -Il 100 -If 0 -Ii 0 -Iv 0 
r -t 1.936198619 -Hs 6 -Hd -1 -Ni 6 -Nx 350.00 -Ny -190.00 -Nz -190.00 -Ne 9999.865790 -Nl MAC -Nw --- -Ma 0 -Md 7000000 -Ms ffff0008 -Mt 0 -Is 9.0 -Id 9.255 -It vectorbasedforward -Il 100 -If 0 -Ii 0 -Iv 0 
r -t 1.936223619 -Hs 6 -Hd -1 -Ni 6 -Nx 350.00 -Ny -190.00 -Nz -190.00 -Ne 9999.865790 -Nl RTR -Nw --- -Ma 0 -Md 7000000 -Ms ffff0008 -Mt 0 -Is 9.0 -Id 9.255 -It vectorbasedforward -Il 100 -If 0 -Ii 0 -Iv 0 
r -t 1.939630076 -Hs 8 -Hd -1 -Ni 8 -Nx 350.00 -Ny -250.00 -Nz -220.00 -Ne 9999.647043 -Nl MAC -Nw --- -Ma 0 -Md 7000000 -Ms ffff0008 -Mt 0 -Is 9.0 -Id 9.255 -It vectorbasedforward -Il 100 -If 0 -Ii 0 -Iv 0 
r -t 1.939655076 -Hs 8 -Hd -1 -Ni 8 -Nx 350.00 -Ny -250.00 -Nz -220.00 -Ne 9999.647043 -Nl RTR -Nw --- -Ma 0 -Md 7000000 -Ms ffff0008 -Mt 0 -Is 9.0 -Id 9.255 -It vectorbasedforward -Il 100 -If 0 -Ii 0 -Iv 0 
N -t 2.000000 -n 0 -e 9999.984000
N -t 2.000000 -n 1 -e 9999.984000
N -t 2.000000 -n 2 -e 9999.984000
N -t 2.000000 -n 3 -e 9999.984000
N -t 2.000000 -n 4 -e 9999.984000
N -t 2.000000 -n 5 -e 9999.984000
N -t 2.000000 -n 6 -e 9999.865280
N -t 2.000000 -n 7 -e 9999.765280
N -t 2.000000 -n 8 -e 9999.646560
N -t 2.000000 -n 9 -e 9999.605920
r -t 2.001000000 -Hs 9 -Hd -2 -Ni 9 -Nx 300.00 -Ny -300.00 -Nz -250.00 -Ne 9999.605920 -Nl RTR -Nw --- -Ma 0 -Md 0 -Ms 0 -Mt 0 -Is 9.0 -Id 9.255 -It vectorbasedforward -Il 100 -If 0 -Ii 2 -Iv 0 
s -t 2.001025000 -Hs 9 -Hd -1 -Ni 9 -Nx 300.00 -Ny -300.00 -Nz -250.00 -Ne 9999.605920 -Nl MAC -Nw --- -Ma 0 -Md 9000000 -Ms ffff0008 -Mt 0 -Is 9.0 -Id 9.255 -It vectorbasedforward -Il 100 -If 0 -Ii 2 -Iv 0 
r -t 2.132232638 -Hs 8 -Hd -1 -Ni 8 -Nx 350.00 -Ny -250.00 -Nz -220.00 -Ne 9999.586142 -Nl MAC -Nw --- -Ma 0 -Md 9000000 -Ms ffff0008 -Mt 0 -Is 9.0 -Id 9.255 -It vectorbasedforward -Il 100 -If 0 -Ii 2 -Iv 0 
r -t 2.132257638 -Hs 8 -Hd -1 -Ni 8 -Nx 350.00 -Ny -250.00 -Nz -220.00 -Ne 9999.586142 -Nl RTR -Nw --- -Ma 0 -Md 9000000 -Ms ffff0008 -Mt 0 -Is 9.0 -Id 9.255 -It vectorbasedforward -Il 100 -If 0 -Ii 2 -Iv 0 
s -t 2.174713772 -Hs 6 -Hd -1 -Ni 6 -Nx 350.00 -Ny -190.00 -Nz -190.00 -Ne 9999.865280 -Nl MAC -Nw --- -Ma 0 -Md 6000000 -Ms ffff0008 -Mt 0 -Is 9.0 -Id 9.255 -It vectorbasedforward -Il 100 -If 0 -Ii 0 -Iv 0 
s -t 2.181292396 -Hs 8 -Hd -1 -Ni 8 -Nx 350.00 -Ny -250.00 -Nz -220.00 -Ne 9999.586142 -Nl MAC -Nw --- -Ma 0 -Md 8000000 -Ms ffff0008 -Mt 0 -Is 9.0 -Id 9.255 -It vectorbasedforward -Il 100 -If 0 -Ii 1 -Iv 0 
r -t 2.181317396 -Hs 1 -Hd -1 -Ni 1 -Nx 250.00 -Ny -30.00 -Nz -30.00 -Ne 9999.984000 -Nl RTR -Nw --- -Ma 0 -Md 8000000 -Ms ffff0008 -Mt 0 -Is 9.0 -Id 9.255 -It vectorbasedforward -Il 100 -If 0 -Ii 1 -Iv 0 
s -t 2.288232188 -Hs 1 -Hd -1 -Ni 1 -Nx 250.00 -Ny -30.00 -Nz -30.00 -Ne 9999.984000 -Nl MAC -Nw --- -Ma 0 -Md 1000000 -Ms ffff0008 -Mt 0 -Is 9.0 -Id 9.255 -It vectorbasedforward -Il 100 -If 0 -Ii 0 -Iv 0 
r -t 2.288257188 -Hs 8 -Hd -1 -Ni 8 -Nx 350.00 -Ny -250.00 -Nz -220.00 -Ne 9999.397143 -Nl RTR -Nw --- -Ma 0 -Md 1000000 -Ms ffff0008 -Mt 0 -Is 9.0 -Id 9.255 -It vectorbasedforward -Il 100 -If 0 -Ii 0 -Iv 0 
r -t 2.299435131 -Hs 8 -Hd -1 -Ni 8 -Nx 350.00 -Ny -250.00 -Nz -220.00 -Ne 9999.397143 -Nl MAC -Nw --- -Ma 0 -Md 6000000 -Ms ffff0008 -Mt 0 -Is 9.0 -Id 9.255 -It vectorbasedforward -Il 100 -If 0 -Ii 0 -Iv 0 
r -t 2.299460131 -Hs 8 -Hd -1 -Ni 8 -Nx 350.00 -Ny -250.00 -Nz -220.00 -Ne 9999.397143 -Nl RTR -Nw --- -Ma 0 -Md 6000000 -Ms ffff0008 -Mt 0 -Is 9.0 -Id 9.255 -It vectorbasedforward -Il 100 -If 0 -Ii 0 -Iv 0 
r -t 2.306013756 -Hs 6 -Hd -1 -Ni 6 -Nx 350.00 -Ny -190.00 -Nz -190.00 -Ne 9999.665407 -Nl MAC -Nw --- -Ma 0 -Md 8000000 -Ms ffff0008 -Mt 0 -Is 9.0 -Id 9.255 -It vectorbasedforward -Il 100 -If 0 -Ii 1 -Iv 0 
r -t 2.306038756 -Hs 6 -Hd -1 -Ni 6 -Nx 350.00 -Ny -190.00 -Nz -190.00 -Ne 9999.665407 -Nl RTR -Nw --- -Ma 0 -Md 8000000 -Ms ffff0008 -Mt 0 -Is 9.0 -Id 9.255 -It vectorbasedforward -Il 100 -If 0 -Ii 1 -Iv 0 
d -t 2.311282314 -Hs 7 -Hd -1 -Ni 7 -Nx 270.00 -Ny -210.00 -Nz -210.00 -Ne 9999.695922 -Nl MAC -Nw Error/Collision -Ma 0 -Md 6000000 -Ms ffff0008 -Mt 0 -Is 9.0 -Id 9.255 -It vectorbasedforward -Il 100 -If 0 -Ii 0 -Iv 0 
r -t 2.312500035 -Hs 9 -Hd -1 -Ni 9 -Nx 300.00 -Ny -300.00 -Nz -250.00 -Ne 9999.384700 -Nl MAC -Nw --- -Ma 0 -Md 8000000 -Ms ffff0008 -Mt 0 -Is 9.0 -Id 9.255 -It vectorbasedforward -Il 100 -If 0 -Ii 1 -Iv 0 
r -t 2.312525035 -Hs 9 -Hd -1 -Ni 9 -Nx 300.00 -Ny -300.00 -Nz -250.00 -Ne 9999.384700 -Nl RTR -Nw --- -Ma 0 -Md 8000000 -Ms ffff0008 -Mt 0 -Is 9.0 -Id 9.255 -It vectorbasedforward -Il 100 -If 0 -Ii 1 -Iv 0 
d -t 2.321292396 -Hs 7 -Hd -1 -Ni 7 -Nx 270.00 -Ny -210.00 -Nz -210.00 -Ne 9999.695922 -Nl MAC -Nw Error/Collision -Ma 0 -Md 8000000 -Ms ffff0008 -Mt 0 -Is 9.0 -Id 9.255 -It vectorbasedforward -Il 100 -If 0 -Ii 1 -Iv 0 
r -t 2.411948445 -Hs 0 -Hd -1 -Ni 0 -Nx 300.00 -Ny 0.00 -Nz 0.00 -Ne 9999.921344 -Nl MAC -Nw --- -Ma 0 -Md 1000000 -Ms ffff0008 -Mt 0 -Is 9.0 -Id 9.255 -It vectorbasedforward -Il 100 -If 0 -Ii 0 -Iv 0 
r -t 2.411973445 -Hs 0 -Hd -1 -Ni 0 -Nx 300.00 -Ny 0.00 -Nz 0.00 -Ne 9999.921344 -Nl RTR -Nw --- -Ma 0 -Md 1000000 -Ms ffff0008 -Mt 0 -Is 9.0 -Id 9.255 -It vectorbasedforward -Il 100 -If 0 -Ii 0 -Iv 0 
r -t 2.415372640 -Hs 3 -Hd -1 -Ni 3 -Nx 250.00 -Ny -80.00 -Nz -80.00 -Ne 9999.921317 -Nl MAC -Nw --- -Ma 0 -Md 1000000 -Ms ffff0008 -Mt 0 -Is 9.0 -Id 9.255 -It vectorbasedforward -Il 100 -If 0 -Ii 0 -Iv 0 
r -t 2.415397640 -Hs 3 -Hd -1 -Ni 3 -Nx 250.00 -Ny -80.00 -Nz -80.00 -Ne 9999.921317 -Nl RTR -Nw --- -Ma 0 -Md 1000000 -Ms ffff0008 -Mt 0 -Is 9.0 -Id 9.255 -It vectorbasedforward -Il 100 -If 0 -Ii 0 -Iv 0 
N -t 3.000000 -n 0 -e 9999.916640
N -t 3.000000 -n 1 -e 9999.816640
N -t 3.000000 -n 2 -e 9999.976000
N -t 3.000000 -n 3 -e 9999.916640
N -t 3.000000 -n 4 -e 9999.976000
N -t 3.000000 -n 5 -e 9999.976000
N -t 3.000000 -n 6 -e 9999.659855
N -t 3.000000 -n 7 -e 9999.690493
N -t 3.000000 -n 8 -e 9999.391538
N -t 3.000000 -n 9 -e 9999.379200
r -t 3.001000000 -Hs 9 -Hd -2 -Ni 9 -Nx 300.00 -Ny -300.00 -Nz -250.00 -Ne 9999.379200 -Nl RTR -Nw --- -Ma 0 -Md 0 -Ms 0 -Mt 0 -Is 9.0 -Id 9.255 -It vectorbasedforward -Il 100 -If 0 -Ii 3 -Iv 0 
s -t 3.001025000 -Hs 9 -Hd -1 -Ni 9 -Nx 300.00 -Ny -300.00 -Nz -250.00 -Ne 9999.379200 -Nl MAC -Nw --- -Ma 0 -Md 9000000 -Ms ffff0008 -Mt 0 -Is 9.0 -Id 9.255 -It vectorbasedforward -Il 100 -If 0 -Ii 3 -Iv 0 
r -t 3.132232638 -Hs 8 -Hd -1 -Ni 8 -Nx 350.00 -Ny -250.00 -Nz -220.00 -Ne 9999.331120 -Nl MAC -Nw --- -Ma 0 -Md 9000000 -Ms ffff0008 -Mt 0 -Is 9.0 -Id 9.255 -It vectorbasedforward -Il 100 -If 0 -Ii 3 -Iv 0 
r -t 3.132257638 -Hs 8 -Hd -1 -Ni 8 -Nx 350.00 -Ny -250.00 -Nz -220.00 -Ne 9999.331120 -Nl RTR -Nw --- -Ma 0 -Md 9000000 -Ms ffff0008 -Mt 0 -Is 9.0 -Id 9.255 -It vectorbasedforward -Il 100 -If 0 -Ii 3 -Iv 0 
s -t 3.174713772 -Hs 6 -Hd -1 -Ni 6 -Nx 350.00 -Ny -190.00 -Nz -190.00 -Ne 9999.659855 -Nl MAC -Nw --- -Ma 0 -Md 6000000 -Ms ffff0008 -Mt 0 -Is 9.0 -Id 9.255 -It vectorbasedforward -Il 100 -If 0 -Ii 1 -Iv 0 
s -t 3.181292396 -Hs 8 -Hd -1 -Ni 8 -Nx 350.00 -Ny -250.00 -Nz -220.00 -Ne 9999.331120 -Nl MAC -Nw --- -Ma 0 -Md 8000000 -Ms ffff0008 -Mt 0 -Is 9.0 -Id 9.255 -It vectorbasedforward -Il 100 -If 0 -Ii 2 -Iv 0 
r -t 3.181317396 -Hs 1 -Hd -1 -Ni 1 -Nx 250.00 -Ny -30.00 -Nz -30.00 -Ne 9999.816640 -Nl RTR -Nw --- -Ma 0 -Md 8000000 -Ms ffff0008 -Mt 0 -Is 9.0 -Id 9.255 -It vectorbasedforward -Il 100 -If 0 -Ii 2 -Iv 0 
s -t 3.288232188 -Hs 1 -Hd -1 -Ni 1 -Nx 250.00 -Ny -30.00 -Nz -30.00 -Ne 9999.816640 -Nl MAC -Nw --- -Ma 0 -Md 1000000 -Ms ffff0008 -Mt 0 -Is 9.0 -Id 9.255 -It vectorbasedforward -Il 100 -If 0 -Ii 1 -Iv 0 
r -t 3.288257188 -Hs 8 -Hd -1 -Ni 8 -Nx 350.00 -Ny -250.00 -Nz -220.00 -Ne 9999.142121 -Nl RTR -Nw --- -Ma 0 -Md 1000000 -Ms ffff0008 -Mt 0 -Is 9.0 -Id 9.255 -It vectorbasedforward -Il 100 -If 0 -Ii 1 -Iv 0 
r -t 3.299435131 -Hs 8 -Hd -1 -Ni 8 -Nx 350.00 -Ny -250.00 -Nz -220.00 -Ne 9999.142121 -Nl MAC -Nw --- -Ma 0 -Md 6000000 -Ms ffff0008 -Mt 0 -Is 9.0 -Id 9.255 -It vectorbasedforward -Il 100 -If 0 -Ii 1 -Iv 0 
r -t 3.299460131 -Hs 8 -Hd -1 -Ni 8 -Nx 350.00 -Ny -250.00 -Nz -220.00 -Ne 9999.142121 -Nl RTR -Nw --- -Ma 0 -Md 6000000 -Ms ffff0008 -Mt 0 -Is 9.0 -Id 9.255 -It vectorbasedforward -Il 100 -If 0 -Ii 1 -Iv 0 
r -t 3.306013756 -Hs 6 -Hd -1 -Ni 6 -Nx 350.00 -Ny -190.00 -Nz -190.00 -Ne 9999.459983 -Nl MAC -Nw --- -Ma 0 -Md 8000000 -Ms ffff0008 -Mt 0 -Is 9.0 -Id 9.255 -It vectorbasedforward -Il 100 -If 0 -Ii 2 -Iv 0 
r -t 3.306038756 -Hs 6 -Hd -1 -Ni 6 -Nx 350.00 -Ny -190.00 -Nz -190.00 -Ne 9999.459983 -Nl RTR -Nw --- -Ma 0 -Md 8000000 -Ms ffff0008 -Mt 0 -Is 9.0 -Id 9.255 -It vectorbasedforward -Il 100 -If 0 -Ii 2 -Iv 0 
d -t 3.311282314 -Hs 7 -Hd -1 -Ni 7 -Nx 270.00 -Ny -210.00 -Nz -210.00 -Ne 9999.621135 -Nl MAC -Nw Error/Collision -Ma 0 -Md 6000000 -Ms ffff0008 -Mt 0 -Is 9.0 -Id 9.255 -It vectorbasedforward -Il 100 -If 0 -Ii 1 -Iv 0 
r -t 3.312500035 -Hs 9 -Hd -1 -Ni 9 -Nx 300.00 -Ny -300.00 -Nz -250.00 -Ne 9999.157980 -Nl MAC -Nw --- -Ma 0 -Md 8000000 -Ms ffff0008 -Mt 0 -Is 9.0 -Id 9.255 -It vectorbasedforward -Il 100 -If 0 -Ii 2 -Iv 0 
r -t 3.312525035 -Hs 9 -Hd -1 -Ni 9 -Nx 300.00 -Ny -300.00 -Nz -250.00 -Ne 9999.157980 -Nl RTR -Nw --- -Ma 0 -Md 8000000 -Ms ffff0008 -Mt 0 -Is 9.0 -Id 9.255 -It vectorbasedforward -Il 100 -If 0 -Ii 2 -Iv 0 
d -t 3.321292396 -Hs 7 -Hd -1 -Ni 7 -Nx 270.00 -Ny -210.00 -Nz -210.00 -Ne 9999.621135 -Nl MAC -Nw Error/Collision -Ma 0 -Md 8000000 -Ms ffff0008 -Mt 0 -Is 9.0 -Id 9.255 -It vectorbasedforward -Il 100 -If 0 -Ii 2 -Iv 0 
r -t 3.411948445 -Hs 0 -Hd -1 -Ni 0 -Nx 300.00 -Ny 0.00 -Nz 0.00 -Ne 9999.853984 -Nl MAC -Nw --- -Ma 0 -Md 1000000 -Ms ffff0008 -Mt 0 -Is 9.0 -Id 9.255 -It vectorbasedforward -Il 100 -If 0 -Ii 1 -Iv 0 
r -t 3.411973445 -Hs 0 -Hd -1 -Ni 0 -Nx 300.00 -Ny 0.00 -Nz 0.00 -Ne 9999.853984 -Nl RTR -Nw --- -Ma 0 -Md 1000000 -Ms ffff0008 -Mt 0 -Is 9.0 -Id 9.255 -It vectorbasedforward -Il 100 -If 0 -Ii 1 -Iv 0 
r -t 3.415372640 -Hs 3 -Hd -1 -Ni 3 -Nx 250.00 -Ny -80.00 -Nz -80.00 -Ne 9999.853957 -Nl MAC -Nw --- -Ma 0 -Md 1000000 -Ms ffff0008 -Mt 0 -Is 9.0 -Id 9.255 -It vectorbasedforward -Il 100 -If 0 -Ii 1 -Iv 0 
r -t 3.415397640 -Hs 3 -Hd -1 -Ni 3 -Nx 250.00 -Ny -80.00 -Nz -80.00 -Ne 9999.853957 -Nl RTR -Nw --- -Ma 0 -Md 1000000 -Ms ffff0008 -Mt 0 -Is 9.0 -Id 9.255 -It vectorbasedforward -Il 100 -If 0 -Ii 1 -Iv 0 
s -t 3.556438162 -Hs 3 -Hd -1 -Ni 3 -Nx 250.00 -Ny -80.00 -Nz -80.00 -Ne 9999.853957 -Nl MAC -Nw --- -Ma 0 -Md 3000000 -Ms ffff0008 -Mt 0 -Is 9.0 -Id 9.255 -It vectorbasedforward -Il 100 -If 0 -Ii 0 -Iv 0 
r -t 3.683578614 -Hs 1 -Hd -1 -Ni 1 -Nx 250.00 -Ny -30.00 -Nz -30.00 -Ne 9999.592451 -Nl MAC -Nw --- -Ma 0 -Md 3000000 -Ms ffff0008 -Mt 0 -Is 9.0 -Id 9.255 -It vectorbasedforward -Il 100 -If 0 -Ii 0 -Iv 0 
r -t 3.683603614 -Hs 1 -Hd -1 -Ni 1 -Nx 250.00 -Ny -30.00 -Nz -30.00 -Ne 9999.592451 -Nl RTR -Nw --- -Ma 0 -Md 3000000 -Ms ffff0008 -Mt 0 -Is 9.0 -Id 9.255 -It vectorbasedforward -Il 100 -If 0 -Ii 0 -Iv 0 
r -t 3.693006704 -Hs 5 -Hd -1 -Ni 5 -Nx 250.00 -Ny -140.00 -Nz -140.00 -Ne 9999.911096 -Nl MAC -Nw --- -Ma 0 -Md 3000000 -Ms ffff0008 -Mt 0 -Is 9.0 -Id 9.255 -It vectorbasedforward -Il 100 -If 0 -Ii 0 -Iv 0 
r -t 3.693031704 -Hs 5 -Hd -1 -Ni 5 -Nx 250.00 -Ny -140.00 -Nz -140.00 -Ne 9999.911096 -Nl RTR -Nw --- -Ma 0 -Md 3000000 -Ms ffff0008 -Mt 0 -Is 9.0 -Id 9.255 -It vectorbasedforward -Il 100 -If 0 -Ii 0 -Iv 0 
r -t 3.694747681 -Hs 4 -Hd -1 -Ni 4 -Nx 330.00 -Ny -105.00 -Nz -105.00 -Ne 9999.911082 -Nl MAC -Nw --- -Ma 0 -Md 3000000 -Ms ffff0008 -Mt 0 -Is 9.0 -Id 9.255 -It vectorbasedforward -Il 100 -If 0 -Ii 0 -Iv 0 
r -t 3.694772681 -Hs 4 -Hd -1 -Ni 4 -Nx 330.00 -Ny -105.00 -Nz -105.00 -Ne 9999.911082 -Nl RTR -Nw --- -Ma 0 -Md 3000000 -Ms ffff0008 -Mt 0 -Is 9.0 -Id 9.255 -It vectorbasedforward -Il 100 -If 0 -Ii 0 -Iv 0 
N -t 4.000000 -n 0 -e 9999.849280
N -t 4.000000 -n 1 -e 9999.589920
N -t 4.000000 -n 2 -e 9999.968000
N -t 4.000000 -n 3 -e 9999.689920
N -t 4.000000 -n 4 -e 9999.908640
N -t 4.000000 -n 5 -e 9999.908640
N -t 4.000000 -n 6 -e 9999.454431
N -t 4.000000 -n 7 -e 9999.615705
N -t 4.000000 -n 8 -e 9999.136516
N -t 4.000000 -n 9 -e 9999.152480
r -t 4.001000000 -Hs 9 -Hd -2 -Ni 9 -Nx 300.00 -Ny -300.00 -Nz -250.00 -Ne 9999.152480 -Nl RTR -Nw --- -Ma 0 -Md 0 -Ms 0 -Mt 0 -Is 9.0 -Id 9.255 -It vectorbasedforward -Il 100 -If 0 -Ii 4 -Iv 0 
s -t 4.001025000 -Hs 9 -Hd -1 -Ni 9 -Nx 300.00 -Ny -300.00 -Nz -250.00 -Ne 9999.152480 -Nl MAC -Nw --- -Ma 0 -Md 9000000 -Ms ffff0008 -Mt 0 -Is 9.0 -Id 9.255 -It vectorbasedforward -Il 100 -If 0 -Ii 4 -Iv 0 
r -t 4.132232638 -Hs 8 -Hd -1 -Ni 8 -Nx 350.00 -Ny -250.00 -Nz -220.00 -Ne 9999.076098 -Nl MAC -Nw --- -Ma 0 -Md 9000000 -Ms ffff0008 -Mt 0 -Is 9.0 -Id 9.255 -It vectorbasedforward -Il 100 -If 0 -Ii 4 -Iv 0 
r -t 4.132257638 -Hs 8 -Hd -1 -Ni 8 -Nx 350.00 -Ny -250.00 -Nz -220.00 -Ne 9999.076098 -Nl RTR -Nw --- -Ma 0 -Md 9000000 -Ms ffff0008 -Mt 0 -Is 9.0 -Id 9.255 -It vectorbasedforward -Il 100 -If 0 -Ii 4 -Iv 0 
s -t 4.174713772 -Hs 6 -Hd -1 -Ni 6 -Nx 350.00 -Ny -190.00 -Nz -190.00 -Ne 9999.454431 -Nl MAC -Nw --- -Ma 0 -Md 6000000 -Ms ffff0008 -Mt 0 -Is 9.0 -Id 9.255 -It vectorbasedforward -Il 100 -If 0 -Ii 2 -Iv 0 
s -t 4.181292396 -Hs 8 -Hd -1 -Ni 8 -Nx 350.00 -Ny -250.00 -Nz -220.00 -Ne 9999.076098 -Nl MAC -Nw --- -Ma 0 -Md 8000000 -Ms ffff0008 -Mt 0 -Is 9.0 -Id 9.255 -It vectorbasedforward -Il 100 -If 0 -Ii 3 -Iv 0 
r -t 4.181317396 -Hs 1 -Hd -1 -Ni 1 -Nx 250.00 -Ny -30.00 -Nz -30.00 -Ne 9999.589920 -Nl RTR -Nw --- -Ma 0 -Md 8000000 -Ms ffff0008 -Mt 0 -Is 9.0 -Id 9.255 -It vectorbasedforward -Il 100 -If 0 -Ii 3 -Iv 0 
s -t 4.288232188 -Hs 1 -Hd -1 -Ni 1 -Nx 250.00 -Ny -30.00 -Nz -30.00 -Ne 9999.589920 -Nl MAC -Nw --- -Ma 0 -Md 1000000 -Ms ffff0008 -Mt 0 -Is 9.0 -Id 9.255 -It vectorbasedforward -Il 100 -If 0 -Ii 2 -Iv 0 
r -t 4.288257188 -Hs 8 -Hd -1 -Ni 8 -Nx 350.00 -Ny -250.00 -Nz -220.00 -Ne 9998.887099 -Nl RTR -Nw --- -Ma 0 -Md 1000000 -Ms ffff0008 -Mt 0 -Is 9.0 -Id 9.255 -It vectorbasedforward -Il 100 -If 0 -Ii 2 -Iv 0 
r -t 4.299435131 -Hs 8 -Hd -1 -Ni 8 -Nx 350.00 -Ny -250.00 -Nz -220.00 -Ne 9998.887099 -Nl MAC -Nw --- -Ma 0 -Md 6000000 -Ms ffff0008 -Mt 0 -Is 9.0 -Id 9.255 -It vectorbasedforward -Il 100 -If 0 -Ii 2 -Iv 0 
r -t 4.299460131 -Hs 8 -Hd -1 -Ni 8 -Nx 350.00 -Ny -250.00 -Nz -220.00 -Ne 9998.887099 -Nl RTR -Nw --- -Ma 0 -Md 6000000 -Ms ffff0008 -Mt 0 -Is 9.0 -Id 9.255 -It vectorbasedforward -Il 100 -If 0 -Ii 2 -Iv 0 
r -t 4.306013756 -Hs 6 -Hd -1 -Ni 6 -Nx 350.00 -Ny -190.00 -Nz -190.00 -Ne 9999.254558 -Nl MAC -Nw --- -Ma 0 -Md 8000000 -Ms ffff0008 -Mt 0 -Is 9.0 -Id 9.255 -It vectorbasedforward -Il 100 -If 0 -Ii 3 -Iv 0 
r -t 4.306038756 -Hs 6 -Hd -1 -Ni 6 -Nx 350.00 -Ny -190.00 -Nz -190.00 -Ne 9999.254558 -Nl RTR -Nw --- -Ma 0 -Md 8000000 -Ms ffff0008 -Mt 0 -Is 9.0 -Id 9.255 -It vectorbasedforward -Il 100 -If 0 -Ii 3 -Iv 0 
d -t 4.311282314 -Hs 7 -Hd -1 -Ni 7 -Nx 270.00 -Ny -210.00 -Nz -210.00 -Ne 9999.546347 -Nl MAC -Nw Error/Collision -Ma 0 -Md 6000000 -Ms ffff0008 -Mt 0 -Is 9.0 -Id 9.255 -It vectorbasedforward -Il 100 -If 0 -Ii 2 -Iv 0 
r -t 4.312500035 -Hs 9 -Hd -1 -Ni 9 -Nx 300.00 -Ny -300.00 -Nz -250.00 -Ne 9998.931260 -Nl MAC -Nw --- -Ma 0 -Md 8000000 -Ms ffff0008 -Mt 0 -Is 9.0 -Id 9.255 -It vectorbasedforward -Il 100 -If 0 -Ii 3 -Iv 0 
r -t 4.312525035 -Hs 9 -Hd -1 -Ni 9 -Nx 300.00 -Ny -300.00 -Nz -250.00 -Ne 9998.931260 -Nl RTR -Nw --- -Ma 0 -Md 8000000 -Ms ffff0008 -Mt 0 -Is 9.0 -Id 9.255 -It vectorbasedforward -Il 100 -If 0 -Ii 3 -Iv 0 
d -t 4.321292396 -Hs 7 -Hd -1 -Ni 7 -Nx 270.00 -Ny -210.00 -Nz -210.00 -Ne 9999.546347 -Nl MAC -Nw Error/Collision -Ma 0 -Md 8000000 -Ms ffff0008 -Mt 0 -Is 9.0 -Id 9.255 -It vectorbasedforward -Il 100 -If 0 -Ii 3 -Iv 0 
r -t 4.411948445 -Hs 0 -Hd -1 -Ni 0 -Nx 300.00 -Ny 0.00 -Nz 0.00 -Ne 9999.786624 -Nl MAC -Nw --- -Ma 0 -Md 1000000 -Ms ffff0008 -Mt 0 -Is 9.0 -Id 9.255 -It vectorbasedforward -Il 100 -If 0 -Ii 2 -Iv 0 
r -t 4.411973445 -Hs 0 -Hd -1 -Ni 0 -Nx 300.00 -Ny 0.00 -Nz 0.00 -Ne 9999.786624 -Nl RTR -Nw --- -Ma 0 -Md 1000000 -Ms ffff0008 -Mt 0 -Is 9.0 -Id 9.255 -It vectorbasedforward -Il 100 -If 0 -Ii 2 -Iv 0 
r -t 4.415372640 -Hs 3 -Hd -1 -Ni 3 -Nx 250.00 -Ny -80.00 -Nz -80.00 -Ne 9999.627237 -Nl MAC -Nw --- -Ma 0 -Md 1000000 -Ms ffff0008 -Mt 0 -Is 9.0 -Id 9.255 -It vectorbasedforward -Il 100 -If 0 -Ii 2 -Iv 0 
r -t 4.415397640 -Hs 3 -Hd -1 -Ni 3 -Nx 250.00 -Ny -80.00 -Nz -80.00 -Ne 9999.627237 -Nl RTR -Nw --- -Ma 0 -Md 1000000 -Ms ffff0008 -Mt 0 -Is 9.0 -Id 9.255 -It vectorbasedforward -Il 100 -If 0 -Ii 2 -Iv 0 
s -t 4.556438162 -Hs 3 -Hd -1 -Ni 3 -Nx 250.00 -Ny -80.00 -Nz -80.00 -Ne 9999.627237 -Nl MAC -Nw --- -Ma 0 -Md 3000000 -Ms ffff0008 -Mt 0 -Is 9.0 -Id 9.255 -It vectorbasedforward -Il 100 -If 0 -Ii 1 -Iv 0 
r -t 4.683578614 -Hs 1 -Hd -1 -Ni 1 -Nx 250.00 -Ny -30.00 -Nz -30.00 -Ne 9999.365731 -Nl MAC -Nw --- -Ma 0 -Md 3000000 -Ms ffff0008 -Mt 0 -Is 9.0 -Id 9.255 -It vectorbasedforward -Il 100 -If 0 -Ii 1 -Iv 0 
r -t 4.683603614 -Hs 1 -Hd -1 -Ni 1 -Nx 250.00 -Ny -30.00 -Nz -30.00 -Ne 9999.365731 -Nl RTR -Nw --- -Ma 0 -Md 3000000 -Ms ffff0008 -Mt 0 -Is 9.0 -Id 9.255 -It vectorbasedforward -Il 100 -If 0 -Ii 1 -Iv 0 
r -t 4.693006704 -Hs 5 -Hd -1 -Ni 5 -Nx 250.00 -Ny -140.00 -Nz -140.00 -Ne 9999.843736 -Nl MAC -Nw --- -Ma 0 -Md 3000000 -Ms ffff0008 -Mt 0 -Is 9.0 -Id 9.255 -It vectorbasedforward -Il 100 -If 0 -Ii 1 -Iv 0 
r -t 4.693031704 -Hs 5 -Hd -1 -Ni 5 -Nx 250.00 -Ny -140.00 -Nz -140.00 -Ne 9999.843736 -Nl RTR -Nw --- -Ma 0 -Md 3000000 -Ms ffff0008 -Mt 0 -Is 9.0 -Id 9.255 -It vectorbasedforward -Il 100 -If 0 -Ii 1 -Iv 0 
r -t 4.694747681 -Hs 4 -Hd -1 -Ni 4 -Nx 330.00 -Ny -105.00 -Nz -105.00 -Ne 9999.843722 -Nl MAC -Nw --- -Ma 0 -Md 3000000 -Ms ffff0008 -Mt 0 -Is 9.0 -Id 9.255 -It vectorbasedforward -Il 100 -If 0 -Ii 1 -Iv 0 
r -t 4.694772681 -Hs 4 -Hd -1 -Ni 4 -Nx 330.00 -Ny -105.00 -Nz -105.00 -Ne 9999.843722 -Nl RTR -Nw --- -Ma 0 -Md 3000000 -Ms ffff0008 -Mt 0 -Is 9.0 -Id 9.255 -It vectorbasedforward -Il 100 -If 0 -Ii 1 -Iv 0 
s -t 4.918006113 -Hs 5 -Hd -1 -Ni 5 -Nx 250.00 -Ny -140.00 -Nz -140.00 -Ne 9999.843736 -Nl MAC -Nw --- -Ma 0 -Md 5000000 -Ms ffff0008 -Mt 0 -Is 9.0 -Id 9.255 -It vectorbasedforward -Il 100 -If 0 -Ii 0 -Iv 0 
N -t 5.000000 -n 0 -e 9999.781920
N -t 5.000000 -n 1 -e 9999.363200
N -t 5.000000 -n 2 -e 9999.960000
N -t 5.000000 -n 3 -e 9999.403403
N -t 5.000000 -n 4 -e 9999.781434
N -t 5.000000 -n 5 -e 9999.681920
N -t 5.000000 -n 6 -e 9999.249006
N -t 5.000000 -n 7 -e 9999.540918
N -t 5.000000 -n 8 -e 9998.881494
N -t 5.000000 -n 9 -e 9998.925760
r -t 5.001000000 -Hs 9 -Hd -2 -Ni 9 -Nx 300.00 -Ny -300.00 -Nz -250.00 -Ne 9998.925760 -Nl RTR -Nw --- -Ma 0 -Md 0 -Ms 0 -Mt 0 -Is 9.0 -Id 9.255 -It vectorbasedforward -Il 100 -If 0 -Ii 5 -Iv 0 
s -t 5.001025000 -Hs 9 -Hd -1 -Ni 9 -Nx 300.00 -Ny -300.00 -Nz -250.00 -Ne 9998.925760 -Nl MAC -Nw --- -Ma 0 -Md 9000000 -Ms ffff0008 -Mt 0 -Is 9.0 -Id 9.255 -It vectorbasedforward -Il 100 -If 0 -Ii 5 -Iv 0 
r -t 5.054574656 -Hs 3 -Hd -1 -Ni 3 -Nx 250.00 -Ny -80.00 -Nz -80.00 -Ne 9999.403403 -Nl MAC -Nw --- -Ma 0 -Md 5000000 -Ms ffff0008 -Mt 0 -Is 9.0 -Id 9.255 -It vectorbasedforward -Il 100 -If 0 -Ii 0 -Iv 0 
r -t 5.054599656 -Hs 3 -Hd -1 -Ni 3 -Nx 250.00 -Ny -80.00 -Nz -80.00 -Ne 9999.403403 -Nl RTR -Nw --- -Ma 0 -Md 5000000 -Ms ffff0008 -Mt 0 -Is 9.0 -Id 9.255 -It vectorbasedforward -Il 100 -If 0 -Ii 0 -Iv 0 
r -t 5.060722406 -Hs 4 -Hd -1 -Ni 4 -Nx 330.00 -Ny -105.00 -Nz -105.00 -Ne 9999.781434 -Nl MAC -Nw --- -Ma 0 -Md 5000000 -Ms ffff0008 -Mt 0 -Is 9.0 -Id 9.255 -It vectorbasedforward -Il 100 -If 0 -Ii 0 -Iv 0 
r -t 5.060747406 -Hs 4 -Hd -1 -Ni 4 -Nx 330.00 -Ny -105.00 -Nz -105.00 -Ne 9999.781434 -Nl RTR -Nw --- -Ma 0 -Md 5000000 -Ms ffff0008 -Mt 0 -Is 9.0 -Id 9.255 -It vectorbasedforward -Il 100 -If 0 -Ii 0 -Iv 0 
r -t 5.132232638 -Hs 8 -Hd -1 -Ni 8 -Nx 350.00 -Ny -250.00 -Nz -220.00 -Ne 9998.821076 -Nl MAC -Nw --- -Ma 0 -Md 9000000 -Ms ffff0008 -Mt 0 -Is 9.0 -Id 9.255 -It vectorbasedforward -Il 100 -If 0 -Ii 5 -Iv 0 
r -t 5.132257638 -Hs 8 -Hd -1 -Ni 8 -Nx 350.00 -Ny -250.00 -Nz -220.00 -Ne 9998.821076 -Nl RTR -Nw --- -Ma 0 -Md 9000000 -Ms ffff0008 -Mt 0 -Is 9.0 -Id 9.255 -It vectorbasedforward -Il 100 -If 0 -Ii 5 -Iv 0 
s -t 5.174713772 -Hs 6 -Hd -1 -Ni 6 -Nx 350.00 -Ny -190.00 -Nz -190.00 -Ne 9999.249006 -Nl MAC -Nw --- -Ma 0 -Md 6000000 -Ms ffff0008 -Mt 0 -Is 9.0 -Id 9.255 -It vectorbasedforward -Il 100 -If 0 -Ii 3 -Iv 0 
s -t 5.181292396 -Hs 8 -Hd -1 -Ni 8 -Nx 350.00 -Ny -250.00 -Nz -220.00 -Ne 9998.821076 -Nl MAC -Nw --- -Ma 0 -Md 8000000 -Ms ffff0008 -Mt 0 -Is 9.0 -Id 9.255 -It vectorbasedforward -Il 100 -If 0 -Ii 4 -Iv 0 
r -t 5.181317396 -Hs 1 -Hd -1 -Ni 1 -Nx 250.00 -Ny -30.00 -Nz -30.00 -Ne 9999.363200 -Nl RTR -Nw --- -Ma 0 -Md 8000000 -Ms ffff0008 -Mt 0 -Is 9.0 -Id 9.255 -It vectorbasedforward -Il 100 -If 0 -Ii 4 -Iv 0 
s -t 5.288232188 -Hs 1 -Hd -1 -Ni 1 -Nx 250.00 -Ny -30.00 -Nz -30.00 -Ne 9999.363200 -Nl MAC -Nw --- -Ma 0 -Md 1000000 -Ms ffff0008 -Mt 0 -Is 9.0 -Id 9.255 -It vectorbasedforward -Il 100 -If 0 -Ii 3 -Iv 0 
r -t 5.288257188 -Hs 8 -Hd -1 -Ni 8 -Nx 350.00 -Ny -250.00 -Nz -220.00 -Ne 9998.632077 -Nl RTR -Nw --- -Ma 0 -Md 1000000 -Ms ffff0008 -Mt 0 -Is 9.0 -Id 9.255 -It vectorbasedforward -Il 100 -If 0 -Ii 3 -Iv 0 
r -t 5.299435131 -Hs 8 -Hd -1 -Ni 8 -Nx 350.00 -Ny -250.00 -Nz -220.00 -Ne 9998.632077 -Nl MAC -Nw --- -Ma 0 -Md 6000000 -Ms ffff0008 -Mt 0 -Is 9.0 -Id 9.255 -It vectorbasedforward -Il 100 -If 0 -Ii 3 -Iv 0 
r -t 5.299460131 -Hs 8 -Hd -1 -Ni 8 -Nx 350.00 -Ny -250.00 -Nz -220.00 -Ne 9998.632077 -Nl RTR -Nw --- -Ma 0 -Md 6000000 -Ms ffff0008 -Mt 0 -Is 9.0 -Id 9.255 -It vectorbasedforward -Il 100 -If 0 -Ii 3 -Iv 0 
r -t 5.306013756 -Hs 6 -Hd -1 -Ni 6 -Nx 350.00 -Ny -190.00 -Nz -190.00 -Ne 9999.049134 -Nl MAC -Nw --- -Ma 0 -Md 8000000 -Ms ffff0008 -Mt 0 -Is 9.0 -Id 9.255 -It vectorbasedforward -Il 100 -If 0 -Ii 4 -Iv 0 
r -t 5.306038756 -Hs 6 -Hd -1 -Ni 6 -Nx 350.00 -Ny -190.00 -Nz -190.00 -Ne 9999.049134 -Nl RTR -Nw --- -Ma 0 -Md 8000000 -Ms ffff0008 -Mt 0 -Is 9.0 -Id 9.255 -It vectorbasedforward -Il 100 -If 0 -Ii 4 -Iv 0 
d -t 5.311282314 -Hs 7 -Hd -1 -Ni 7 -Nx 270.00 -Ny -210.00 -Nz -210.00 -Ne 9999.471560 -Nl MAC -Nw Error/Collision -Ma 0 -Md 6000000 -Ms ffff0008 -Mt 0 -Is 9.0 -Id 9.255 -It vectorbasedforward -Il 100 -If 0 -Ii 3 -Iv 0 
r -t 5.312500035 -Hs 9 -Hd -1 -Ni 9 -Nx 300.00 -Ny -300.00 -Nz -250.00 -Ne 9998.704540 -Nl MAC -Nw --- -Ma 0 -Md 8000000 -Ms ffff0008 -Mt 0 -Is 9.0 -Id 9.255 -It vectorbasedforward -Il 100 -If 0 -Ii 4 -Iv 0 
r -t 5.312525035 -Hs 9 -Hd -1 -Ni 9 -Nx 300.00 -Ny -300.00 -Nz -250.00 -Ne 9998.704540 -Nl RTR -Nw --- -Ma 0 -Md 8000000 -Ms ffff0008 -Mt 0 -Is 9.0 -Id 9.255 -It vectorbasedforward -Il 100 -If 0 -Ii 4 -Iv 0 
d -t 5.321292396 -Hs 7 -Hd -1 -Ni 7 -Nx 270.00 -Ny -210.00 -Nz -210.00 -Ne 9999.471560 -Nl MAC -Nw Error/Collision -Ma 0 -Md 8000000 -Ms ffff0008 -Mt 0 -Is 9.0 -Id 9.255 -It vectorbasedforward -Il 100 -If 0 -Ii 4 -Iv 0 
r -t 5.411948445 -Hs 0 -Hd -1 -Ni 0 -Nx 300.00 -Ny 0.00 -Nz 0.00 -Ne 9999.719264 -Nl MAC -Nw --- -Ma 0 -Md 1000000 -Ms ffff0008 -Mt 0 -Is 9.0 -Id 9.255 -It vectorbasedforward -Il 100 -If 0 -Ii 3 -Iv 0 
r -t 5.411973445 -Hs 0 -Hd -1 -Ni 0 -Nx 300.00 -Ny 0.00 -Nz 0.00 -Ne 9999.719264 -Nl RTR -Nw --- -Ma 0 -Md 1000000 -Ms ffff0008 -Mt 0 -Is 9.0 -Id 9.255 -It vectorbasedforward -Il 100 -If 0 -Ii 3 -Iv 0 
r -t 5.415372640 -Hs 3 -Hd -1 -Ni 3 -Nx 250.00 -Ny -80.00 -Nz -80.00 -Ne 9999.341157 -Nl MAC -Nw --- -Ma 0 -Md 1000000 -Ms ffff0008 -Mt 0 -Is 9.0 -Id 9.255 -It vectorbasedforward -Il 100 -If 0 -Ii 3 -Iv 0 
r -t 5.415397640 -Hs 3 -Hd -1 -Ni 3 -Nx 250.00 -Ny -80.00 -Nz -80.00 -Ne 9999.341157 -Nl RTR -Nw --- -Ma 0 -Md 1000000 -Ms ffff0008 -Mt 0 -Is 9.0 -Id 9.255 -It vectorbasedforward -Il 100 -If 0 -Ii 3 -Iv 0 
s -t 5.556438162 -Hs 3 -Hd -1 -Ni 3 -Nx 250.00 -Ny -80.00 -Nz -80.00 -Ne 9999.341157 -Nl MAC -Nw --- -Ma 0 -Md 3000000 -Ms ffff0008 -Mt 0 -Is 9.0 -Id 9.255 -It vectorbasedforward -Il 100 -If 0 -Ii 2 -Iv 0 
r -t 5.683578614 -Hs 1 -Hd -1 -Ni 1 -Nx 250.00 -Ny -30.00 -Nz -30.00 -Ne 9999.139011 -Nl MAC -Nw --- -Ma 0 -Md 3000000 -Ms ffff0008 -Mt 0 -Is 9.0 -Id 9.255 -It vectorbasedforward -Il 100 -If 0 -Ii 2 -Iv 0 
r -t 5.683603614 -Hs 1 -Hd -1 -Ni 1 -Nx 250.00 -Ny -30.00 -Nz -30.00 -Ne 9999.139011 -Nl RTR -Nw --- -Ma 0 -Md 3000000 -Ms ffff0008 -Mt 0 -Is 9.0 -Id 9.255 -It vectorbasedforward -Il 100 -If 0 -Ii 2 -Iv 0 
r -t 5.693006704 -Hs 5 -Hd -1 -Ni 5 -Nx 250.00 -Ny -140.00 -Nz -140.00 -Ne 9999.617016 -Nl MAC -Nw --- -Ma 0 -Md 3000000 -Ms ffff0008 -Mt 0 -Is 9.0 -Id 9.255 -It vectorbasedforward -Il 100 -If 0 -Ii 2 -Iv 0 
r -t 5.693031704 -Hs 5 -Hd -1 -Ni 5 -Nx 250.00 -Ny -140.00 -Nz -140.00 -Ne 9999.617016 -Nl RTR -Nw --- -Ma 0 -Md 3000000 -Ms ffff0008 -Mt 0 -Is 9.0 -Id 9.255 -It vectorbasedforward -Il 100 -If 0 -Ii 2 -Iv 0 
r -t 5.694747681 -Hs 4 -Hd -1 -Ni 4 -Nx 330.00 -Ny -105.00 -Nz -105.00 -Ne 9999.717002 -Nl MAC -Nw --- -Ma 0 -Md 3000000 -Ms ffff0008 -Mt 0 -Is 9.0 -Id 9.255 -It vectorbasedforward -Il 100 -If 0 -Ii 2 -Iv 0 
r -t 5.694772681 -Hs 4 -Hd -1 -Ni 4 -Nx 330.00 -Ny -105.00 -Nz -105.00 -Ne 9999.717002 -Nl RTR -Nw --- -Ma 0 -Md 3000000 -Ms ffff0008 -Mt 0 -Is 9.0 -Id 9.255 -It vectorbasedforward -Il 100 -If 0 -Ii 2 -Iv 0 
s -t 5.918006113 -Hs 5 -Hd -1 -Ni 5 -Nx 250.00 -Ny -140.00 -Nz -140.00 -Ne 9999.617016 -Nl MAC -Nw --- -Ma 0 -Md 5000000 -Ms ffff0008 -Mt 0 -Is 9.0 -Id 9.255 -It vectorbasedforward -Il 100 -If 0 -Ii 1 -Iv 0 
N -t 6.000000 -n 0 -e 9999.714560
N -t 6.000000 -n 1 -e 9999.136480
N -t 6.000000 -n 2 -e 9999.952000
N -t 6.000000 -n 3 -e 9999.117323
N -t 6.000000 -n 4 -e 9999.654714
N -t 6.000000 -n 5 -e 9999.455200
N -t 6.000000 -n 6 -e 9999.043582
N -t 6.000000 -n 7 -e 9999.466130
N -t 6.000000 -n 8 -e 9998.626472
N -t 6.000000 -n 9 -e 9998.699040
r -t 6.001000000 -Hs 9 -Hd -2 -Ni 9 -Nx 300.00 -Ny -300.00 -Nz -250.00 -Ne 9998.699040 -Nl RTR -Nw --- -Ma 0 -Md 0 -Ms 0 -Mt 0 -Is 9.0 -Id 9.255 -It vectorbasedforward -Il 100 -If 0 -Ii 6 -Iv 0 