n -t * -s 0  -x 300 -y 0 -Z 0 -z 30  -v circle -c green
n -t * -s 1  -x 250 -y -30 -Z -30 -z 30  -v circle -c green
n -t * -s 2  -x 350 -y -50 -Z -50 -z 30  -v circle -c green
n -t * -s 3  -x 250 -y -80 -Z -80 -z 30  -v circle -c green
n -t * -s 4  -x 330 -y -105 -Z -105 -z 30  -v circle -c green
n -t * -s 5  -x 250 -y -140 -Z -140 -z 30  -v circle -c green
n -t * -s 6  -x 350 -y -190 -Z -190 -z 30  -v circle -c green
n -t * -s 7  -x 270 -y -210 -Z -210 -z 30  -v circle -c green
n -t * -s 8  -x 350 -y -250 -Z -220 -z 30  -v circle -c green
n -t * -s 9  -x 300 -y -300 -Z -250 -z 30  -v circle -c green
V -t * -v 1.0a5 -a 0
W -t * -x 1500 -y 1500
A -t * -n 1 -p 0 -o 0xffffffff -c 31 -a 1
A -t * -h 1 -m 2147483647 -s 0
l -t * -s 1 -d 8 -S UP -r 1 -D 0.01 -c black
+ -t 0.001025000 -s 9 -d -1 -p vectorbasedforward -e 100 -c 2 -a 0 -i 0 -k MAC 
- -t 0.001025000 -s 9 -d -1 -p vectorbasedforward -e 100 -c 2 -a 0 -i 0 -k MAC
h -t 0.001025000 -s 9 -d -1 -p vectorbasedforward -e 100 -c 2 -a 0 -i 0 -k MAC -R 100.000000
v -t 0.001025000 -e sim_annotation 0.001025000 1 node 9 sendout packet (vectorbasedforward) 0
r -t 0.132232638 -s 8 -d -1 -p vectorbasedforward -e 100 -c 2 -a 0 -i 0 -k MAC -R 100.000000
v -t 0.132232638 -e sim_annotation 0.132232638 2 node 8 receive packet(vectorbasedforward) 0
+ -t 1.001025000 -s 9 -d -1 -p vectorbasedforward -e 100 -c 2 -a 0 -i 1 -k MAC 
- -t 1.001025000 -s 9 -d -1 -p vectorbasedforward -e 100 -c 2 -a 0 -i 1 -k MAC
h -t 1.001025000 -s 9 -d -1 -p vectorbasedforward -e 100 -c 2 -a 0 -i 1 -k MAC -R 100.000000
v -t 1.001025000 -e sim_annotation 1.001025000 3 node 9 sendout packet (vectorbasedforward) 1
r -t 1.132232638 -s 8 -d -1 -p vectorbasedforward -e 100 -c 2 -a 0 -i 1 -k MAC -R 100.000000
v -t 1.132232638 -e sim_annotation 1.132232638 4 node 8 receive packet(vectorbasedforward) 1
+ -t 1.181292396 -s 8 -d -1 -p vectorbasedforward -e 100 -c 2 -a 0 -i 0 -k MAC 
- -t 1.181292396 -s 8 -d -1 -p vectorbasedforward -e 100 -c 2 -a 0 -i 0 -k MAC
h -t 1.181292396 -s 8 -d -1 -p vectorbasedforward -e 100 -c 2 -a 0 -i 0 -k MAC -R 100.000000
v -t 1.181292396 -e sim_annotation 1.181292396 5 node 8 sendout packet (vectorbasedforward) 0
r -t 1.306013756 -s 6 -d -1 -p vectorbasedforward -e 100 -c 2 -a 0 -i 0 -k MAC -R 100.000000
v -t 1.306013756 -e sim_annotation 1.306013756 6 node 6 receive packet(vectorbasedforward) 0
r -t 1.312500035 -s 9 -d -1 -p vectorbasedforward -e 100 -c 2 -a 0 -i 0 -k MAC -R 100.000000
v -t 1.312500035 -e sim_annotation 1.312500035 7 node 9 receive packet(vectorbasedforward) 0
r -t 1.321292396 -s 7 -d -1 -p vectorbasedforward -e 100 -c 2 -a 0 -i 0 -k MAC -R 100.000000
v -t 1.321292396 -e sim_annotation 1.321292396 8 node 7 receive packet(vectorbasedforward) 0
+ -t 1.799630076 -s 7 -d -1 -p vectorbasedforward -e 100 -c 2 -a 0 -i 0 -k MAC 
- -t 1.799630076 -s 7 -d -1 -p vectorbasedforward -e 100 -c 2 -a 0 -i 0 -k MAC
h -t 1.799630076 -s 7 -d -1 -p vectorbasedforward -e 100 -c 2 -a 0 -i 0 -k MAC -R 100.000000
v -t 1.799630076 -e sim_annotation 1.799630076 9 node 7 sendout packet (vectorbasedforward) 0
r -t 1.936198619 -s 6 -d -1 -p vectorbasedforward -e 100 -c 2 -a 0 -i 0 -k MAC -R 100.000000
v -t 1.936198619 -e sim_annotation 1.936198619 10 node 6 receive packet(vectorbasedforward) 0
r -t 1.939630076 -s 8 -d -1 -p vectorbasedforward -e 100 -c 2 -a 0 -i 0 -k MAC -R 100.000000
v -t 1.939630076 -e sim_annotation 1.939630076 11 node 8 receive packet(vectorbasedforward) 0
+ -t 2.001025000 -s 9 -d -1 -p vectorbasedforward -e 100 -c 2 -a 0 -i 2 -k MAC 
- -t 2.001025000 -s 9 -d -1 -p vectorbasedforward -e 100 -c 2 -a 0 -i 2 -k MAC
h -t 2.001025000 -s 9 -d -1 -p vectorbasedforward -e 100 -c 2 -a 0 -i 2 -k MAC -R 100.000000
v -t 2.001025000 -e sim_annotation 2.001025000 12 node 9 sendout packet (vectorbasedforward) 2
r -t 2.132232638 -s 8 -d -1 -p vectorbasedforward -e 100 -c 2 -a 0 -i 2 -k MAC -R 100.000000
v -t 2.132232638 -e sim_annotation 2.132232638 13 node 8 receive packet(vectorbasedforward) 2
+ -t 2.174713772 -s 6 -d -1 -p vectorbasedforward -e 100 -c 2 -a 0 -i 0 -k MAC 
- -t 2.174713772 -s 6 -d -1 -p vectorbasedforward -e 100 -c 2 -a 0 -i 0 -k MAC
h -t 2.174713772 -s 6 -d -1 -p vectorbasedforward -e 100 -c 2 -a 0 -i 0 -k MAC -R 100.000000
v -t 2.174713772 -e sim_annotation 2.174713772 14 node 6 sendout packet (vectorbasedforward) 0
+ -t 2.181292396 -s 8 -d -1 -p vectorbasedforward -e 100 -c 2 -a 0 -i 1 -k MAC 
- -t 2.181292396 -s 8 -d -1 -p vectorbasedforward -e 100 -c 2 -a 0 -i 1 -k MAC
h -t 2.181292396 -s 8 -d -1 -p vectorbasedforward -e 100 -c 2 -a 0 -i 1 -k MAC -R 100.000000
v -t 2.181292396 -e sim_annotation 2.181292396 15 node 8 sendout packet (vectorbasedforward) 1
+ -t 2.288232188 -s 1 -d -1 -p vectorbasedforward -e 100 -c 2 -a 0 -i 0 -k MAC 
- -t 2.288232188 -s 1 -d -1 -p vectorbasedforward -e 100 -c 2 -a 0 -i 0 -k MAC
h -t 2.288232188 -s 1 -d -1 -p vectorbasedforward -e 100 -c 2 -a 0 -i 0 -k MAC -R 100.000000
v -t 2.288232188 -e sim_annotation 2.288232188 16 node 1 sendout packet (vectorbasedforward) 0
r -t 2.299435131 -s 8 -d -1 -p vectorbasedforward -e 100 -c 2 -a 0 -i 0 -k MAC -R 100.000000
v -t 2.299435131 -e sim_annotation 2.299435131 17 node 8 receive packet(vectorbasedforward) 0
r -t 2.306013756 -s 6 -d -1 -p vectorbasedforward -e 100 -c 2 -a 0 -i 1 -k MAC -R 100.000000
v -t 2.306013756 -e sim_annotation 2.306013756 18 node 6 receive packet(vectorbasedforward) 1
d -t 2.311282314 -s 7 -d -1 -p vectorbasedforward -e 100 -c 2 -a 0 -i 0 -k MAC
v -t 2.311282314 -e sim_annotation 2.311282314 19 node 7 drop packet(vectorbasedforward) 0
r -t 2.312500035 -s 9 -d -1 -p vectorbasedforward -e 100 -c 2 -a 0 -i 1 -k MAC -R 100.000000
v -t 2.312500035 -e sim_annotation 2.312500035 20 node 9 receive packet(vectorbasedforward) 1
d -t 2.321292396 -s 7 -d -1 -p vectorbasedforward -e 100 -c 2 -a 0 -i 1 -k MAC
v -t 2.321292396 -e sim_annotation 2.321292396 21 node 7 drop packet(vectorbasedforward) 1
r -t 2.411948445 -s 0 -d -1 -p vectorbasedforward -e 100 -c 2 -a 0 -i 0 -k MAC -R 100.000000
v -t 2.411948445 -e sim_annotation 2.411948445 22 node 0 receive packet(vectorbasedforward) 0
r -t 2.415372640 -s 3 -d -1 -p vectorbasedforward -e 100 -c 2 -a 0 -i 0 -k MAC -R 100.000000
v -t 2.415372640 -e sim_annotation 2.415372640 23 node 3 receive packet(vectorbasedforward) 0
+ -t 3.001025000 -s 9 -d -1 -p vectorbasedforward -e 100 -c 2 -a 0 -i 3 -k MAC 
- -t 3.001025000 -s 9 -d -1 -p vectorbasedforward -e 100 -c 2 -a 0 -i 3 -k MAC
h -t 3.001025000 -s 9 -d -1 -p vectorbasedforward -e 100 -c 2 -a 0 -i 3 -k MAC -R 100.000000
v -t 3.001025000 -e sim_annotation 3.001025000 24 node 9 sendout packet (vectorbasedforward) 3
r -t 3.132232638 -s 8 -d -1 -p vectorbasedforward -e 100 -c 2 -a 0 -i 3 -k MAC -R 100.000000
v -t 3.132232638 -e sim_annotation 3.132232638 25 node 8 receive packet(vectorbasedforward) 3
+ -t 3.174713772 -s 6 -d -1 -p vectorbasedforward -e 100 -c 2 -a 0 -i 1 -k MAC 
- -t 3.174713772 -s 6 -d -1 -p vectorbasedforward -e 100 -c 2 -a 0 -i 1 -k MAC
h -t 3.174713772 -s 6 -d -1 -p vectorbasedforward -e 100 -c 2 -a 0 -i 1 -k MAC -R 100.000000
v -t 3.174713772 -e sim_annotation 3.174713772 26 node 6 sendout packet (vectorbasedforward) 1
+ -t 3.181292396 -s 8 -d -1 -p vectorbasedforward -e 100 -c 2 -a 0 -i 2 -k MAC 
- -t 3.181292396 -s 8 -d -1 -p vectorbasedforward -e 100 -c 2 -a 0 -i 2 -k MAC
h -t 3.181292396 -s 8 -d -1 -p vectorbasedforward -e 100 -c 2 -a 0 -i 2 -k MAC -R 100.000000
v -t 3.181292396 -e sim_annotation 3.181292396 27 node 8 sendout packet (vectorbasedforward) 2
+ -t 3.288232188 -s 1 -d -1 -p vectorbasedforward -e 100 -c 2 -a 0 -i 1 -k MAC 
- -t 3.288232188 -s 1 -d -1 -p vectorbasedforward -e 100 -c 2 -a 0 -i 1 -k MAC
h -t 3.288232188 -s 1 -d -1 -p vectorbasedforward -e 100 -c 2 -a 0 -i 1 -k MAC -R 100.000000
v -t 3.288232188 -e sim_annotation 3.288232188 28 node 1 sendout packet (vectorbasedforward) 1
r -t 3.299435131 -s 8 -d -1 -p vectorbasedforward -e 100 -c 2 -a 0 -i 1 -k MAC -R 100.000000
v -t 3.299435131 -e sim_annotation 3.299435131 29 node 8 receive packet(vectorbasedforward) 1
r -t 3.306013756 -s 6 -d -1 -p vectorbasedforward -e 100 -c 2 -a 0 -i 2 -k MAC -R 100.000000
v -t 3.306013756 -e sim_annotation 3.306013756 30 node 6 receive packet(vectorbasedforward) 2
d -t 3.311282314 -s 7 -d -1 -p vectorbasedforward -e 100 -c 2 -a 0 -i 1 -k MAC
v -t 3.311282314 -e sim_annotation 3.311282314 31 node 7 drop packet(vectorbasedforward) 1
r -t 3.312500035 -s 9 -d -1 -p vectorbasedforward -e 100 -c 2 -a 0 -i 2 -k MAC -R 100.000000
v -t 3.312500035 -e sim_annotation 3.312500035 32 node 9 receive packet(vectorbasedforward) 2
d -t 3.321292396 -s 7 -d -1 -p vectorbasedforward -e 100 -c 2 -a 0 -i 2 -k MAC
v -t 3.321292396 -e sim_annotation 3.321292396 33 node 7 drop packet(vectorbasedforward) 2
r -t 3.411948445 -s 0 -d -1 -p vectorbasedforward -e 100 -c 2 -a 0 -i 1 -k MAC -R 100.000000
v -t 3.411948445 -e sim_annotation 3.411948445 34 node 0 receive packet(vectorbasedforward) 1
r -t 3.415372640 -s 3 -d -1 -p vectorbasedforward -e 100 -c 2 -a 0 -i 1 -k MAC -R 100.000000
v -t 3.415372640 -e sim_annotation 3.415372640 35 node 3 receive packet(vectorbasedforward) 1
+ -t 3.556438162 -s 3 -d -1 -p vectorbasedforward -e 100 -c 2 -a 0 -i 0 -k MAC 
- -t 3.556438162 -s 3 -d -1 -p vectorbasedforward -e 100 -c 2 -a 0 -i 0 -k MAC
h -t 3.556438162 -s 3 -d -1 -p vectorbasedforward -e 100 -c 2 -a 0 -i 0 -k MAC -R 100.000000
v -t 3.556438162 -e sim_annotation 3.556438162 36 node 3 sendout packet (vectorbasedforward) 0
r -t 3.683578614 -s 1 -d -1 -p vectorbasedforward -e 100 -c 2 -a 0 -i 0 -k MAC -R 100.000000
v -t 3.683578614 -e sim_annotation 3.683578614 37 node 1 receive packet(vectorbasedforward) 0
r -t 3.693006704 -s 5 -d -1 -p vectorbasedforward -e 100 -c 2 -a 0 -i 0 -k MAC -R 100.000000
v -t 3.693006704 -e sim_annotation 3.693006704 38 node 5 receive packet(vectorbasedforward) 0
r -t 3.694747681 -s 4 -d -1 -p vectorbasedforward -e 100 -c 2 -a 0 -i 0 -k MAC -R 100.000000
v -t 3.694747681 -e sim_annotation 3.694747681 39 node 4 receive packet(vectorbasedforward) 0
+ -t 4.001025000 -s 9 -d -1 -p vectorbasedforward -e 100 -c 2 -a 0 -i 4 -k MAC 
- -t 4.001025000 -s 9 -d -1 -p vectorbasedforward -e 100 -c 2 -a 0 -i 4 -k MAC
h -t 4.001025000 -s 9 -d -1 -p vectorbasedforward -e 100 -c 2 -a 0 -i 4 -k MAC -R 100.000000
v -t 4.001025000 -e sim_annotation 4.001025000 40 node 9 sendout packet (vectorbasedforward) 4
r -t 4.132232638 -s 8 -d -1 -p vectorbasedforward -e 100 -c 2 -a 0 -i 4 -k MAC -R 100.000000
v -t 4.132232638 -e sim_annotation 4.132232638 41 node 8 receive packet(vectorbasedforward) 4
+ -t 4.174713772 -s 6 -d -1 -p vectorbasedforward -e 100 -c 2 -a 0 -i 2 -k MAC 
- -t 4.174713772 -s 6 -d -1 -p vectorbasedforward -e 100 -c 2 -a 0 -i 2 -k MAC
h -t 4.174713772 -s 6 -d -1 -p vectorbasedforward -e 100 -c 2 -a 0 -i 2 -k MAC -R 100.000000
v -t 4.174713772 -e sim_annotation 4.174713772 42 node 6 sendout packet (vectorbasedforward) 2
+ -t 4.181292396 -s 8 -d -1 -p vectorbasedforward -e 100 -c 2 -a 0 -i 3 -k MAC 
- -t 4.181292396 -s 8 -d -1 -p vectorbasedforward -e 100 -c 2 -a 0 -i 3 -k MAC
h -t 4.181292396 -s 8 -d -1 -p vectorbasedforward -e 100 -c 2 -a 0 -i 3 -k MAC -R 100.000000
v -t 4.181292396 -e sim_annotation 4.181292396 43 node 8 sendout packet (vectorbasedforward) 3
+ -t 4.288232188 -s 1 -d -1 -p vectorbasedforward -e 100 -c 2 -a 0 -i 2 -k MAC 
- -t 4.288232188 -s 1 -d -1 -p vectorbasedforward -e 100 -c 2 -a 0 -i 2 -k MAC
h -t 4.288232188 -s 1 -d -1 -p vectorbasedforward -e 100 -c 2 -a 0 -i 2 -k MAC -R 100.000000
v -t 4.288232188 -e sim_annotation 4.288232188 44 node 1 sendout packet (vectorbasedforward) 2
r -t 4.299435131 -s 8 -d -1 -p vectorbasedforward -e 100 -c 2 -a 0 -i 2 -k MAC -R 100.000000
v -t 4.299435131 -e sim_annotation 4.299435131 45 node 8 receive packet(vectorbasedforward) 2
r -t 4.306013756 -s 6 -d -1 -p vectorbasedforward -e 100 -c 2 -a 0 -i 3 -k MAC -R 100.000000
v -t 4.306013756 -e sim_annotation 4.306013756 46 node 6 receive packet(vectorbasedforward) 3
d -t 4.311282314 -s 7 -d -1 -p vectorbasedforward -e 100 -c 2 -a 0 -i 2 -k MAC
v -t 4.311282314 -e sim_annotation 4.311282314 47 node 7 drop packet(vectorbasedforward) 2
r -t 4.312500035 -s 9 -d -1 -p vectorbasedforward -e 100 -c 2 -a 0 -i 3 -k MAC -R 100.000000
v -t 4.312500035 -e sim_annotation 4.312500035 48 node 9 receive packet(vectorbasedforward) 3
d -t 4.321292396 -s 7 -d -1 -p vectorbasedforward -e 100 -c 2 -a 0 -i 3 -k MAC
v -t 4.321292396 -e sim_annotation 4.321292396 49 node 7 drop packet(vectorbasedforward) 3
r -t 4.411948445 -s 0 -d -1 -p vectorbasedforward -e 100 -c 2 -a 0 -i 2 -k MAC -R 100.000000
v -t 4.411948445 -e sim_annotation 4.411948445 50 node 0 receive packet(vectorbasedforward) 2
r -t 4.415372640 -s 3 -d -1 -p vectorbasedforward -e 100 -c 2 -a 0 -i 2 -k MAC -R 100.000000
v -t 4.415372640 -e sim_annotation 4.415372640 51 node 3 receive packet(vectorbasedforward) 2
+ -t 4.556438162 -s 3 -d -1 -p vectorbasedforward -e 100 -c 2 -a 0 -i 1 -k MAC 
- -t 4.556438162 -s 3 -d -1 -p vectorbasedforward -e 100 -c 2 -a 0 -i 1 -k MAC
h -t 4.556438162 -s 3 -d -1 -p vectorbasedforward -e 100 -c 2 -a 0 -i 1 -k MAC -R 100.000000
v -t 4.556438162 -e sim_annotation 4.556438162 52 node 3 sendout packet (vectorbasedforward) 1
r -t 4.683578614 -s 1 -d -1 -p vectorbasedforward -e 100 -c 2 -a 0 -i 1 -k MAC -R 100.000000
v -t 4.683578614 -e sim_annotation 4.683578614 53 node 1 receive packet(vectorbasedforward) 1
r -t 4.693006704 -s 5 -d -1 -p vectorbasedforward -e 100 -c 2 -a 0 -i 1 -k MAC -R 100.000000
v -t 4.693006704 -e sim_annotation 4.693006704 54 node 5 receive packet(vectorbasedforward) 1
r -t 4.694747681 -s 4 -d -1 -p vectorbasedforward -e 100 -c 2 -a 0 -i 1 -k MAC -R 100.000000
v -t 4.694747681 -e sim_annotation 4.694747681 55 node 4 receive packet(vectorbasedforward) 1
+ -t 4.918006113 -s 5 -d -1 -p vectorbasedforward -e 100 -c 2 -a 0 -i 0 -k MAC 
- -t 4.918006113 -s 5 -d -1 -p vectorbasedforward -e 100 -c 2 -a 0 -i 0 -k MAC
h -t 4.918006113 -s 5 -d -1 -p vectorbasedforward -e 100 -c 2 -a 0 -i 0 -k MAC -R 100.000000
v -t 4.918006113 -e sim_annotation 4.918006113 56 node 5 sendout packet (vectorbasedforward) 0
+ -t 5.001025000 -s 9 -d -1 -p vectorbasedforward -e 100 -c 2 -a 0 -i 5 -k MAC 
- -t 5.001025000 -s 9 -d -1 -p vectorbasedforward -e 100 -c 2 -a 0 -i 5 -k MAC
h -t 5.001025000 -s 9 -d -1 -p vectorbasedforward -e 100 -c 2 -a 0 -i 5 -k MAC -R 100.000000
v -t 5.001025000 -e sim_annotation 5.001025000 57 node 9 sendout packet (vectorbasedforward) 5
r -t 5.054574656 -s 3 -d -1 -p vectorbasedforward -e 100 -c 2 -a 0 -i 0 -k MAC -R 100.000000
v -t 5.054574656 -e sim_annotation 5.054574656 58 node 3 receive packet(vectorbasedforward) 0
r -t 5.060722406 -s 4 -d -1 -p vectorbasedforward -e 100 -c 2 -a 0 -i 0 -k MAC -R 100.000000
v -t 5.060722406 -e sim_annotation 5.060722406 59 node 4 receive packet(vectorbasedforward) 0
r -t 5.132232638 -s 8 -d -1 -p vectorbasedforward -e 100 -c 2 -a 0 -i 5 -k MAC -R 100.000000
v -t 5.132232638 -e sim_annotation 5.132232638 60 node 8 receive packet(vectorbasedforward) 5
+ -t 5.174713772 -s 6 -d -1 -p vectorbasedforward -e 100 -c 2 -a 0 -i 3 -k MAC 
- -t 5.174713772 -s 6 -d -1 -p vectorbasedforward -e 100 -c 2 -a 0 -i 3 -k MAC
h -t 5.174713772 -s 6 -d -1 -p vectorbasedforward -e 100 -c 2 -a 0 -i 3 -k MAC -R 100.000000
v -t 5.174713772 -e sim_annotation 5.174713772 61 node 6 sendout packet (vectorbasedforward) 3
+ -t 5.181292396 -s 8 -d -1 -p vectorbasedforward -e 100 -c 2 -a 0 -i 4 -k MAC 
- -t 5.181292396 -s 8 -d -1 -p vectorbasedforward -e 100 -c 2 -a 0 -i 4 -k MAC
h -t 5.181292396 -s 8 -d -1 -p vectorbasedforward -e 100 -c 2 -a 0 -i 4 -k MAC -R 100.000000
v -t 5.181292396 -e sim_annotation 5.181292396 62 node 8 sendout packet (vectorbasedforward) 4
+ -t 5.288232188 -s 1 -d -1 -p vectorbasedforward -e 100 -c 2 -a 0 -i 3 -k MAC 
- -t 5.288232188 -s 1 -d -1 -p vectorbasedforward -e 100 -c 2 -a 0 -i 3 -k MAC
h -t 5.288232188 -s 1 -d -1 -p vectorbasedforward -e 100 -c 2 -a 0 -i 3 -k MAC -R 100.000000
v -t 5.288232188 -e sim_annotation 5.288232188 63 node 1 sendout packet (vectorbasedforward) 3
r -t 5.299435131 -s 8 -d -1 -p vectorbasedforward -e 100 -c 2 -a 0 -i 3 -k MAC -R 100.000000
v -t 5.299435131 -e sim_annotation 5.299435131 64 node 8 receive packet(vectorbasedforward) 3
r -t 5.306013756 -s 6 -d -1 -p vectorbasedforward -e 100 -c 2 -a 0 -i 4 -k MAC -R 100.000000
v -t 5.306013756 -e sim_annotation 5.306013756 65 node 6 receive packet(vectorbasedforward) 4
d -t 5.311282314 -s 7 -d -1 -p vectorbasedforward -e 100 -c 2 -a 0 -i 3 -k MAC
v -t 5.311282314 -e sim_annotation 5.311282314 66 node 7 drop packet(vectorbasedforward) 3
r -t 5.312500035 -s 9 -d -1 -p vectorbasedforward -e 100 -c 2 -a 0 -i 4 -k MAC -R 100.000000
v -t 5.312500035 -e sim_annotation 5.312500035 67 node 9 receive packet(vectorbasedforward) 4
d -t 5.321292396 -s 7 -d -1 -p vectorbasedforward -e 100 -c 2 -a 0 -i 4 -k MAC
v -t 5.321292396 -e sim_annotation 5.321292396 68 node 7 drop packet(vectorbasedforward) 4
r -t 5.411948445 -s 0 -d -1 -p vectorbasedforward -e 100 -c 2 -a 0 -i 3 -k MAC -R 100.000000
v -t 5.411948445 -e sim_annotation 5.411948445 69 node 0 receive packet(vectorbasedforward) 3
r -t 5.415372640 -s 3 -d -1 -p vectorbasedforward -e 100 -c 2 -a 0 -i 3 -k MAC -R 100.000000
v -t 5.415372640 -e sim_annotation 5.415372640 70 node 3 receive packet(vectorbasedforward) 3
+ -t 5.556438162 -s 3 -d -1 -p vectorbasedforward -e 100 -c 2 -a 0 -i 2 -k MAC 
- -t 5.556438162 -s 3 -d -1 -p vectorbasedforward -e 100 -c 2 -a 0 -i 2 -k MAC
h -t 5.556438162 -s 3 -d -1 -p vectorbasedforward -e 100 -c 2 -a 0 -i 2 -k MAC -R 100.000000
v -t 5.556438162 -e sim_annotation 5.556438162 71 node 3 sendout packet (vectorbasedforward) 2
r -t 5.683578614 -s 1 -d -1 -p vectorbasedforward -e 100 -c 2 -a 0 -i 2 -k MAC -R 100.000000
v -t 5.683578614 -e sim_annotation 5.683578614 72 node 1 receive packet(vectorbasedforward) 2
r -t 5.693006704 -s 5 -d -1 -p vectorbasedforward -e 100 -c 2 -a 0 -i 2 -k MAC -R 100.000000
v -t 5.693006704 -e sim_annotation 5.693006704 73 node 5 receive packet(vectorbasedforward) 2
r -t 5.694747681 -s 4 -d -1 -p vectorbasedforward -e 100 -c 2 -a 0 -i 2 -k MAC -R 100.000000
v -t 5.694747681 -e sim_annotation 5.694747681 74 node 4 receive packet(vectorbasedforward) 2
+ -t 5.918006113 -s 5 -d -1 -p vectorbasedforward -e 100 -c 2 -a 0 -i 1 -k MAC 
- -t 5.918006113 -s 5 -d -1 -p vectorbasedforward -e 100 -c 2 -a 0 -i 1 -k MAC
h -t 5.918006113 -s 5 -d -1 -p vectorbasedforward -e 100 -c 2 -a 0 -i 1 -k MAC -R 100.000000
v -t 5.918006113 -e sim_annotation 5.918006113 75 node 5 sendout packet (vectorbasedforward) 1
+ -t 6.001025000 -s 9 -d -1 -p vectorbasedforward -e 100 -c 2 -a 0 -i 6 -k MAC 
- -t 6.001025000 -s 9 -d -1 -p vectorbasedforward -e 100 -c 2 -a 0 -i 6 -k MAC
h -t 6.001025000 -s 9 -d -1 -p vectorbasedforward -e 100 -c 2 -a 0 -i 6 -k MAC -R 100.000000
v -t 6.001025000 -e sim_annotation 6.001025000 76 node 9 sendout packet (vectorbasedforward) 6
r -t 6.054574656 -s 3 -d -1 -p vectorbasedforward -e 100 -c 2 -a 0 -i 1 -k MAC -R 100.000000
v -t 6.054574656 -e sim_annotation 6.054574656 77 node 3 receive packet(vectorbasedforward) 1
r -t 6.060722406 -s 4 -d -1 -p vectorbasedforward -e 100 -c 2 -a 0 -i 1 -k MAC -R 100.000000
v -t 6.060722406 -e sim_annotation 6.060722406 78 node 4 receive packet(vectorbasedforward) 1
r -t 6.132232638 -s 8 -d -1 -p vectorbasedforward -e 100 -c 2 -a 0 -i 6 -k MAC -R 100.000000
v -t 6.132232638 -e sim_annotation 6.132232638 79 node 8 receive packet(vectorbasedforward) 6
+ -t 6.174713772 -s 6 -d -1 -p vectorbasedforward -e 100 -c 2 -a 0 -i 4 -k MAC 
- -t 6.174713772 -s 6 -d -1 -p vectorbasedforward -e 100 -c 2 -a 0 -i 4 -k MAC
h -t 6.174713772 -s 6 -d -1 -p vectorbasedforward -e 100 -c 2 -a 0 -i 4 -k MAC -R 100.000000
v -t 6.174713772 -e sim_annotation 6.174713772 80 node 6 sendout packet (vectorbasedforward) 4
+ -t 6.181292396 -s 8 -d -1 -p vectorbasedforward -e 100 -c 2 -a 0 -i 5 -k MAC 
- -t 6.181292396 -s 8 -d -1 -p vectorbasedforward -e 100 -c 2 -a 0 -i 5 -k MAC
h -t 6.181292396 -s 8 -d -1 -p vectorbasedforward -e 100 -c 2 -a 0 -i 5 -k MAC -R 100.000000
v -t 6.181292396 -e sim_annotation 6.181292396 81 node 8 sendout packet (vectorbasedforward) 5
+ -t 6.288232188 -s 1 -d -1 -p vectorbasedforward -e 100 -c 2 -a 0 -i 4 -k MAC 
- -t 6.288232188 -s 1 -d -1 -p vectorbasedforward -e 100 -c 2 -a 0 -i 4 -k MAC
h -t 6.288232188 -s 1 -d -1 -p vectorbasedforward -e 100 -c 2 -a 0 -i 4 -k MAC -R 100.000000
v -t 6.288232188 -e sim_annotation 6.288232188 82 node 1 sendout packet (vectorbasedforward) 4
r -t 6.299435131 -s 8 -d -1 -p vectorbasedforward -e 100 -c 2 -a 0 -i 4 -k MAC -R 100.000000
v -t 6.299435131 -e sim_annotation 6.299435131 83 node 8 receive packet(vectorbasedforward) 4
r -t 6.306013756 -s 6 -d -1 -p vectorbasedforward -e 100 -c 2 -a 0 -i 5 -k MAC -R 100.000000
v -t 6.306013756 -e sim_annotation 6.306013756 84 node 6 receive packet(vectorbasedforward) 5
d -t 6.311282314 -s 7 -d -1 -p vectorbasedforward -e 100 -c 2 -a 0 -i 4 -k MAC
v -t 6.311282314 -e sim_annotation 6.311282314 85 node 7 drop packet(vectorbasedforward) 4
r -t 6.312500035 -s 9 -d -1 -p vectorbasedforward -e 100 -c 2 -a 0 -i 5 -k MAC -R 100.000000
v -t 6.312500035 -e sim_annotation 6.312500035 86 node 9 receive packet(vectorbasedforward) 5
d -t 6.321292396 -s 7 -d -1 -p vectorbasedforward -e 100 -c 2 -a 0 -i 5 -k MAC
v -t 6.321292396 -e sim_annotation 6.321292396 87 node 7 drop packet(vectorbasedforward) 5
r -t 6.411948445 -s 0 -d -1 -p vectorbasedforward -e 100 -c 2 -a 0 -i 4 -k MAC -R 100.000000
v -t 6.411948445 -e sim_annotation 6.411948445 88 node 0 receive packet(vectorbasedforward) 4
r -t 6.415372640 -s 3 -d -1 -p vectorbasedforward -e 100 -c 2 -a 0 -i 4 -k MAC -R 100.000000
v -t 6.415372640 -e sim_annotation 6.415372640 89 node 3 receive packet(vectorbasedforward) 4
+ -t 6.556438162 -s 3 -d -1 -p vectorbasedforward -e 100 -c 2 -a 0 -i 3 -k MAC 
- -t 6.556438162 -s 3 -d -1 -p vectorbasedforward -e 100 -c 2 -a 0 -i 3 -k MAC
h -t 6.556438162 -s 3 -d -1 -p vectorbasedforward -e 100 -c 2 -a 0 -i 3 -k MAC -R 100.000000
v -t 6.556438162 -e sim_annotation 6.556438162 90 node 3 sendout packet (vectorbasedforward) 3
r -t 6.683578614 -s 1 -d -1 -p vectorbasedforward -e 100 -c 2 -a 0 -i 3 -k MAC -R 100.000000
v -t 6.683578614 -e sim_annotation 6.683578614 91 node 1 receive packet(vectorbasedforward) 3
r -t 6.693006704 -s 5 -d -1 -p vectorbasedforward -e 100 -c 2 -a 0 -i 3 -k MAC -R 100.000000
v -t 6.693006704 -e sim_annotation 6.693006704 92 node 5 receive packet(vectorbasedforward) 3
r -t 6.694747681 -s 4 -d -1 -p vectorbasedforward -e 100 -c 2 -a 0 -i 3 -k MAC -R 100.000000
v -t 6.694747681 -e sim_annotation 6.694747681 93 node 4 receive packet(vectorbasedforward) 3
+ -t 6.918006113 -s 5 -d -1 -p vectorbasedforward -e 100 -c 2 -a 0 -i 2 -k MAC 
- -t 6.918006113 -s 5 -d -1 -p vectorbasedforward -e 100 -c 2 -a 0 -i 2 -k MAC
h -t 6.918006113 -s 5 -d -1 -p vectorbasedforward -e 100 -c 2 -a 0 -i 2 -k MAC -R 100.000000
v -t 6.918006113 -e sim_annotation 6.918006113 94 node 5 sendout packet (vectorbasedforward) 2
+ -t 7.001025000 -s 9 -d -1 -p vectorbasedforward -e 100 -c 2 -a 0 -i 7 -k MAC 
- -t 7.001025000 -s 9 -d -1 -p vectorbasedforward -e 100 -c 2 -a 0 -i 7 -k MAC
h -t 7.001025000 -s 9 -d -1 -p vectorbasedforward -e 100 -c 2 -a 0 -i 7 -k MAC -R 100.000000
v -t 7.001025000 -e sim_annotation 7.001025000 95 node 9 sendout packet (vectorbasedforward) 7
r -t 7.054574656 -s 3 -d -1 -p vectorbasedforward -e 100 -c 2 -a 0 -i 2 -k MAC -R 100.000000
v -t 7.054574656 -e sim_annotation 7.054574656 96 node 3 receive packet(vectorbasedforward) 2
r -t 7.060722406 -s 4 -d -1 -p vectorbasedforward -e 100 -c 2 -a 0 -i 2 -k MAC -R 100.000000
v -t 7.060722406 -e sim_annotation 7.060722406 97 node 4 receive packet(vectorbasedforward) 2
r -t 7.132232638 -s 8 -d -1 -p vectorbasedforward -e 100 -c 2 -a 0 -i 7 -k MAC -R 100.000000
v -t 7.132232638 -e sim_annotation 7.132232638 98 node 8 receive packet(vectorbasedforward) 7
+ -t 7.174713772 -s 6 -d -1 -p vectorbasedforward -e 100 -c 2 -a 0 -i 5 -k MAC 
- -t 7.174713772 -s 6 -d -1 -p vectorbasedforward -e 100 -c 2 -a 0 -i 5 -k MAC
h -t 7.174713772 -s 6 -d -1 -p vectorbasedforward -e 100 -c 2 -a 0 -i 5 -k MAC -R 100.000000
v -t 7.174713772 -e sim_annotation 7.174713772 99 node 6 sendout packet (vectorbasedforward) 5
+ -t 7.181292396 -s 8 -d -1 -p vectorbasedforward -e 100 -c 2 -a 0 -i 6 -k MAC 
- -t 7.181292396 -s 8 -d -1 -p vectorbasedforward -e 100 -c 2 -a 0 -i 6 -k MAC
h -t 7.181292396 -s 8 -d -1 -p vectorbasedforward -e 100 -c 2 -a 0 -i 6 -k MAC -R 100.000000
v -t 7.181292396 -e sim_annotation 7.181292396 100 node 8 sendout packet (vectorbasedforward) 6
+ -t 7.288232188 -s 1 -d -1 -p vectorbasedforward -e 100 -c 2 -a 0 -i 5 -k MAC 
- -t 7.288232188 -s 1 -d -1 -p vectorbasedforward -e 100 -c 2 -a 0 -i 5 -k MAC
h -t 7.288232188 -s 1 -d -1 -p vectorbasedforward -e 100 -c 2 -a 0 -i 5 -k MAC -R 100.000000
v -t 7.288232188 -e sim_annotation 7.288232188 101 node 1 sendout packet (vectorbasedforward) 5
r -t 7.299435131 -s 8 -d -1 -p vectorbasedforward -e 100 -c 2 -a 0 -i 5 -k MAC -R 100.000000
v -t 7.299435131 -e sim_annotation 7.299435131 102 node 8 receive packet(vectorbasedforward) 5
r -t 7.306013756 -s 6 -d -1 -p vectorbasedforward -e 100 -c 2 -a 0 -i 6 -k MAC -R 100.000000
v -t 7.306013756 -e sim_annotation 7.306013756 103 node 6 receive packet(vectorbasedforward) 6
d -t 7.311282314 -s 7 -d -1 -p vectorbasedforward -e 100 -c 2 -a 0 -i 5 -k MAC
v -t 7.311282314 -e sim_annotation 7.311282314 104 node 7 drop packet(vectorbasedforward) 5
r -t 7.312500035 -s 9 -d -1 -p vectorbasedforward -e 100 -c 2 -a 0 -i 6 -k MAC -R 100.000000
v -t 7.312500035 -e sim_annotation 7.312500035 105 node 9 receive packet(vectorbasedforward) 6
d -t 7.321292396 -s 7 -d -1 -p vectorbasedforward -e 100 -c 2 -a 0 -i 6 -k MAC
v -t 7.321292396 -e sim_annotation 7.321292396 106 node 7 drop packet(vectorbasedforward) 6
r -t 7.411948445 -s 0 -d -1 -p vectorbasedforward -e 100 -c 2 -a 0 -i 5 -k MAC -R 100.000000
v -t 7.411948445 -e sim_annotation 7.411948445 107 node 0 receive packet(vectorbasedforward) 5
r -t 7.415372640 -s 3 -d -1 -p vectorbasedforward -e 100 -c 2 -a 0 -i 5 -k MAC -R 100.000000
v -t 7.415372640 -e sim_annotation 7.415372640 108 node 3 receive packet(vectorbasedforward) 5
+ -t 7.556438162 -s 3 -d -1 -p vectorbasedforward -e 100 -c 2 -a 0 -i 4 -k MAC 
- -t 7.556438162 -s 3 -d -1 -p vectorbasedforward -e 100 -c 2 -a 0 -i 4 -k MAC
h -t 7.556438162 -s 3 -d -1 -p vectorbasedforward -e 100 -c 2 -a 0 -i 4 -k MAC -R 100.000000
v -t 7.556438162 -e sim_annotation 7.556438162 109 node 3 sendout packet (vectorbasedforward) 4
r -t 7.683578614 -s 1 -d -1 -p vectorbasedforward -e 100 -c 2 -a 0 -i 4 -k MAC -R 100.000000
v -t 7.683578614 -e sim_annotation 7.683578614 110 node 1 receive packet(vectorbasedforward) 4
r -t 7.693006704 -s 5 -d -1 -p vectorbasedforward -e 100 -c 2 -a 0 -i 4 -k MAC -R 100.000000
v -t 7.693006704 -e sim_annotation 7.693006704 111 node 5 receive packet(vectorbasedforward) 4
r -t 7.694747681 -s 4 -d -1 -p vectorbasedforward -e 100 -c 2 -a 0 -i 4 -k MAC -R 100.000000
v -t 7.694747681 -e sim_annotation 7.694747681 112 node 4 receive packet(vectorbasedforward) 4
+ -t 7.918006113 -s 5 -d -1 -p vectorbasedforward -e 100 -c 2 -a 0 -i 3 -k MAC 
- -t 7.918006113 -s 5 -d -1 -p vectorbasedforward -e 100 -c 2 -a 0 -i 3 -k MAC
h -t 7.918006113 -s 5 -d -1 -p vectorbasedforward -e 100 -c 2 -a 0 -i 3 -k MAC -R 100.000000
v -t 7.918006113 -e sim_annotation 7.918006113 113 node 5 sendout packet (vectorbasedforward) 3
+ -t 8.001025000 -s 9 -d -1 -p vectorbasedforward -e 100 -c 2 -a 0 -i 8 -k MAC 
- -t 8.001025000 -s 9 -d -1 -p vectorbasedforward -e 100 -c 2 -a 0 -i 8 -k MAC
h -t 8.001025000 -s 9 -d -1 -p vectorbasedforward -e 100 -c 2 -a 0 -i 8 -k MAC -R 100.000000
v -t 8.001025000 -e sim_annotation 8.001025000 114 node 9 sendout packet (vectorbasedforward) 8
r -t 8.054574656 -s 3 -d -1 -p vectorbasedforward -e 100 -c 2 -a 0 -i 3 -k MAC -R 100.000000
v -t 8.054574656 -e sim_annotation 8.054574656 115 node 3 receive packet(vectorbasedforward) 3
r -t 8.060722406 -s 4 -d -1 -p vectorbasedforward -e 100 -c 2 -a 0 -i 3 -k MAC -R 100.000000
v -t 8.060722406 -e sim_annotation 8.060722406 116 node 4 receive packet(vectorbasedforward) 3
r -t 8.132232638 -s 8 -d -1 -p vectorbasedforward -e 100 -c 2 -a 0 -i 8 -k MAC -R 100.000000
v -t 8.132232638 -e sim_annotation 8.132232638 117 node 8 receive packet(vectorbasedforward) 8
+ -t 8.174713772 -s 6 -d -1 -p vectorbasedforward -e 100 -c 2 -a 0 -i 6 -k MAC 
- -t 8.174713772 -s 6 -d -1 -p vectorbasedforward -e 100 -c 2 -a 0 -i 6 -k MAC
h -t 8.174713772 -s 6 -d -1 -p vectorbasedforward -e 100 -c 2 -a 0 -i 6 -k MAC -R 100.000000
v -t 8.174713772 -e sim_annotation 8.174713772 118 node 6 sendout packet (vectorbasedforward) 6
+ -t 8.181292396 -s 8 -d -1 -p vectorbasedforward -e 100 -c 2 -a 0 -i 7 -k MAC 
- -t 8.181292396 -s 8 -d -1 -p vectorbasedforward -e 100 -c 2 -a 0 -i 7 -k MAC
h -t 8.181292396 -s 8 -d -1 -p vectorbasedforward -e 100 -c 2 -a 0 -i 7 -k MAC -R 100.000000
v -t 8.181292396 -e sim_annotation 8.181292396 119 node 8 sendout packet (vectorbasedforward) 7
+ -t 8.288232188 -s 1 -d -1 -p vectorbasedforward -e 100 -c 2 -a 0 -i 6 -k MAC 
- -t 8.288232188 -s 1 -d -1 -p vectorbasedforward -e 100 -c 2 -a 0 -i 6 -k MAC
h -t 8.288232188 -s 1 -d -1 -p vectorbasedforward -e 100 -c 2 -a 0 -i 6 -k MAC -R 100.000000
v -t 8.288232188 -e sim_annotation 8.288232188 120 node 1 sendout packet (vectorbasedforward) 6